# vtk DataFile Version 4.1
vtk output
ASCII
DATASET POLYDATA
POINTS 1002 float
47.4386 93.6719 95.3447 49.943 97.831 103.741 44.3952 102.516 92.0376 
45.4955 105.46 101.563 52.262 100.145 97.9458 50.2732 105.032 95.0472 
40.5992 95.3945 102.434 40.0531 100.54 100.672 52.937 103.848 103.958 
48.5181 99.5228 89.5872 43.798 100.961 106.703 42.9788 96.7407 93.9115 
47.3705 94.6408 95.9146 47.3003 95.4915 96.6832 47.3437 96.1682 97.5941 
47.4634 96.735 98.5874 47.6801 97.1261 99.6347 48.1472 97.2424 100.762 
48.8221 97.1899 101.87 49.4042 97.2335 102.751 49.7543 97.4782 103.348 
47.5924 94.5654 95.3519 47.869 95.4264 95.5165 48.3172 96.2361 95.747 
48.7942 97.0628 96.0643 49.3762 97.7782 96.4772 50.1108 98.289 96.9276 
50.8309 98.7418 97.3248 51.3733 99.2429 97.6275 51.8258 99.7318 97.8331 
47.2203 93.6621 95.7244 46.9213 93.8844 96.2496 46.4434 94.343 96.9542 
45.7942 94.7633 97.7885 44.95 95.165 98.729 43.986 95.4616 99.7313 
43.0133 95.5539 100.69 42.0877 95.4539 101.484 41.2982 95.3751 102.042 
47.576 93.3242 94.8282 47.7733 93.3893 94.312 48.0541 93.9084 93.7402 
48.2886 94.6274 93.0363 48.4011 95.4941 92.2333 48.4467 96.4311 91.5787 
48.4587 97.3078 91.0269 48.4473 98.132 90.4802 48.4749 98.8824 89.9965 
47.3372 92.5868 95.1121 47.0415 91.9092 94.9245 46.4968 92.2422 94.5838 
45.8964 93.0587 94.1475 45.3357 93.8211 93.8512 44.7615 94.5824 93.7505 
44.2066 95.2924 93.7513 43.7204 95.8255 93.7929 43.3093 96.2822 93.8498 
50.6145 97.7991 103.39 51.297 97.7806 102.91 51.9855 97.7383 102.36 
52.5425 97.766 101.749 52.858 98.0334 101.136 52.8141 98.5732 100.525 
52.6128 99.1198 99.9335 52.4671 99.5586 99.2918 52.3629 99.9077 98.61 
49.08 97.6736 103.792 47.9949 97.5317 103.748 46.826 97.3593 103.62 
45.7279 97.1304 103.444 44.6853 96.8818 103.237 43.7431 96.5715 103.099 
42.8984 96.2292 103.026 42.0683 95.9195 102.877 41.2936 95.6472 102.669 
50.5307 98.1771 103.93 51.1677 98.5619 104.168 51.7313 99.0715 104.361 
52.2043 99.7004 104.506 52.6895 100.333 104.7 53.0968 101.031 104.835 
53.2708 101.901 104.774 53.2409 102.75 104.546 53.123 103.373 104.261 
49.569 98.1019 104.142 49.0599 98.4054 104.559 48.4605 98.7123 104.992 
47.8634 99.0031 105.394 47.206 99.3066 105.748 46.5166 99.5387 106.139 
45.8386 99.7163 106.494 45.1063 100.012 106.672 44.3778 100.48 106.724 
44.4971 102.779 92.8755 44.5974 103.086 93.8246 44.7016 103.41 94.8741 
44.8402 103.719 96.0061 44.9666 104.092 97.0779 45.0832 104.471 98.1021 
45.1964 104.817 99.0641 45.2684 105.132 99.9376 45.3616 105.356 100.776 
44.7557 102.83 91.8185 45.1808 103.174 91.6787 45.6448 103.53 91.6901 
46.1357 103.899 91.8863 46.7355 104.234 92.2719 47.4534 104.494 92.7858 
48.2251 104.69 93.3756 48.9954 104.886 93.9518 49.6812 104.996 94.5239 
44.1003 102.368 92.8197 43.76 102.219 93.6822 43.3649 102.07 94.6679 
42.9362 101.9 95.7113 42.4893 101.685 96.7662 42.0393 101.424 97.8121 
41.5569 101.172 98.7802 41.0296 100.935 99.5691 40.5222 100.733 100.166 
44.5215 102.459 91.0552 44.6741 102.391 90.0079 44.807 102.317 88.9262 
45.0986 102.217 88.1153 45.7245 101.986 87.909 46.4896 101.59 88.2103 
47.0915 101.112 88.5491 47.5952 100.559 88.9058 48.0862 100.024 89.2711 
44.0947 102.173 91.7183 43.7508 101.762 91.5037 43.3821 101.288 91.4307 
43.0287 100.744 91.4591 42.7123 100.071 91.5977 42.5153 99.2065 91.9567 
42.5571 98.3735 92.4657 42.6971 97.7072 92.9725 42.8405 97.1767 93.4595 
45.9586 105.7 101.053 46.4431 105.936 100.444 46.9397 106.111 99.7127 
47.4901 106.159 98.8857 48.095 106.143 98.0423 48.6997 106.028 97.3115 
49.228 105.777 96.717 49.6313 105.48 96.1568 49.9783 105.265 95.562 
44.9052 105.174 101.563 44.3284 104.771 101.54 43.7126 104.304 101.493 
43.1003 103.771 101.452 42.4786 103.214 101.423 41.8525 102.675 101.381 
41.261 102.15 101.252 40.7821 101.599 101.052 40.3778 101.061 100.851 
46.0076 105.641 102.028 46.6496 105.774 102.478 47.426 105.813 102.87 
48.3424 105.74 103.196 49.3266 105.533 103.427 50.2235 105.223 103.601 
51.0276 104.908 103.759 51.7895 104.595 103.889 52.4436 104.235 103.963 
45.3274 105.292 102.338 45.1949 104.993 103.051 45.0548 104.604 103.682 
44.9024 104.18 104.342 44.7141 103.736 105.019 44.4996 103.232 105.537 
44.3163 102.693 105.975 44.1405 102.187 106.385 43.9352 101.634 106.62 
52.4565 100.486 97.5434 52.6318 100.901 97.0842 52.7067 101.455 96.631 
52.5941 102.142 96.2811 52.3314 102.855 96.0129 52.0004 103.514 95.7383 
51.6403 104.06 95.4592 51.2414 104.501 95.2382 50.7674 104.822 95.1097 
52.7335 100.405 98.4508 53.168 100.738 99.0782 53.5803 101.161 99.765 
54.0486 101.592 100.302 54.4468 102.129 100.875 54.6159 102.698 101.726 
54.4282 103.117 102.59 53.9786 103.384 103.132 53.4471 103.61 103.561 
51.8675 100.084 97.1991 51.4515 99.993 96.3216 51.085 99.8576 95.316 
50.7281 99.7148 94.2425 50.3283 99.607 93.1969 50.0005 99.484 92.2019 
49.8102 99.3513 91.1809 49.5897 99.287 90.247 49.1555 99.3556 89.709 
50.6478 105.169 95.9036 51.0667 105.267 96.8389 51.5346 105.354 97.7608 
51.9426 105.375 98.7555 52.3093 105.287 99.866 52.694 105.128 100.956 
52.9633 104.893 101.912 53.0378 104.557 102.708 52.9958 104.168 103.372 
50.1576 104.705 94.2866 49.9775 104.284 93.5151 49.7382 103.815 92.6826 
49.5257 103.282 91.801 49.3439 102.717 90.9803 49.2062 102.133 90.2309 
49.1853 101.425 89.6034 49.1761 100.677 89.2511 48.898 100.054 89.3495 
39.7929 95.3269 102.458 38.9997 95.4449 102.379 38.3927 95.8054 102.247 
38.0599 96.4524 102.071 38.0482 97.3273 101.837 38.3267 98.1612 101.569 
38.7336 98.8264 101.321 39.1693 99.4341 101.097 39.6155 100.023 100.881 
40.405 95.6342 102.989 40.307 95.9066 103.628 40.3674 96.2576 104.312 
40.5871 96.7484 104.943 40.9066 97.3501 105.471 41.3489 98.0625 105.902 
41.9442 98.8486 106.255 42.5649 99.5708 106.525 43.1641 100.278 106.671 
40.3779 95.0375 101.946 40.2386 94.7203 101.381 40.4206 94.9054 100.604 
40.9294 95.3504 99.6675 41.5018 95.6221 98.597 41.9891 95.7795 97.5002 
42.4064 96.0299 96.506 42.7072 96.3046 95.6041 42.8819 96.52 94.7391 
39.8565 100.615 101.328 39.8094 100.63 102.163 39.869 100.684 103.081 
40.0142 100.825 103.987 40.3461 100.942 104.767 40.9187 100.957 105.359 
41.5763 100.968 105.865 42.2329 100.994 106.317 42.9406 101.003 106.623 
40.0887 100.114 100.206 40.21 99.6846 99.6711 40.3841 99.2913 99.0054 
40.5932 98.8932 98.267 40.9354 98.4642 97.5187 41.3777 98.0427 96.7466 
41.796 97.6665 95.9522 42.2218 97.3244 95.2145 42.6209 97.0197 94.5219 
52.5841 103.801 104.576 52.0885 103.701 105.175 51.3956 103.519 105.687 
50.5388 103.274 106.132 49.5865 103.019 106.487 48.4477 102.7 106.644 
47.2003 102.297 106.672 45.9817 101.839 106.672 44.8263 101.388 106.694 
47.8003 99.3282 89.7938 47.1194 98.9951 89.9422 46.4321 98.5489 90.0731 
45.669 98.1407 90.3634 44.8657 97.7316 90.6955 44.1114 97.1908 90.9037 
43.5427 96.7695 91.3094 43.292 96.685 92.1053 43.1669 96.702 93.0388 
47.5937 95.4223 96.0365 47.9745 96.1391 96.28 47.6294 96.1363 96.8515 
48.468 96.9165 96.6235 48.1415 96.8106 97.1846 47.8316 96.7308 97.844 
49.0519 97.6421 97.0715 48.805 97.4264 97.6658 48.5531 97.2339 98.2603 
48.1982 97.1011 98.9383 49.9206 98.0516 97.5416 49.6595 97.8583 98.2 
49.459 97.592 98.8337 49.2197 97.3349 99.448 48.7689 97.2167 100.112 
50.7905 98.4204 97.9326 50.6333 98.1646 98.6525 50.4297 97.8897 99.3549 
50.2596 97.5539 99.9554 49.9655 97.2894 100.581 49.4767 97.1755 101.263 
51.4402 98.901 98.2563 51.4193 98.5781 98.9577 51.333 98.2643 99.6967 
51.2578 97.802 100.281 51.0703 97.4024 100.877 50.689 97.2241 101.563 
50.1027 97.1787 102.226 51.9239 99.4333 98.4778 51.9969 99.0626 99.1571 
52.078 98.6452 99.8301 52.1298 98.1383 100.455 52.0393 97.641 101.039 
51.6995 97.3991 101.667 51.123 97.4071 102.326 50.4561 97.4133 102.915 
47.7439 94.4288 94.8396 47.968 94.6277 94.3155 48.0739 95.4524 94.9785 
48.3106 94.9905 93.7308 48.3413 95.6725 94.4436 48.5873 96.3361 95.1776 
48.6409 95.5658 92.9395 48.7128 96.003 93.8106 48.921 96.5491 94.5753 
49.1059 97.201 95.4536 48.8442 96.3574 92.1178 49.0203 96.5489 93.0124 
49.2712 96.8901 93.8958 49.479 97.401 94.788 49.6574 97.9878 95.8733 
48.9742 97.1453 91.44 49.2064 97.2267 92.2601 49.4586 97.4256 93.2013 
49.7839 97.7292 94.124 49.977 98.2197 95.2164 50.2675 98.6252 96.3668 
49.0611 97.8982 90.7754 49.3811 97.9115 91.53 49.5413 98.097 92.5358 
49.8717 98.2851 93.4806 50.2292 98.5559 94.5176 50.4976 98.9056 95.6853 
50.8887 99.1469 96.7499 49.1228 98.6474 90.1466 49.5468 98.5971 90.8 
49.7018 98.7539 91.8235 49.9084 98.9362 92.8321 50.287 99.0783 93.8364 
50.6678 99.2646 94.9333 50.987 99.4979 96.0498 51.3995 99.6463 97.0156 
49.4134 99.9696 89.7304 49.4745 100.687 90.018 49.7141 99.9728 90.5372 
49.4994 101.482 90.5783 49.7782 100.735 91.0164 49.9872 100.041 91.5512 
49.7248 102.2 91.2233 50.0021 101.558 91.5781 50.2408 100.813 92.0251 
50.3625 100.136 92.5883 49.9496 102.803 91.9671 50.3381 102.272 92.2062 
50.5892 101.605 92.5693 50.7565 100.848 93.0831 50.7947 100.209 93.6694 
50.1293 103.385 92.8117 50.5643 102.89 92.976 50.9084 102.28 93.2353 
51.1111 101.546 93.6621 51.2046 100.848 94.2064 51.1847 100.299 94.7617 
50.3833 103.925 93.6285 50.8004 103.496 93.7787 51.1886 102.943 94.0029 
51.4579 102.231 94.3527 51.6033 101.503 94.8061 51.647 100.896 95.2988 
51.5831 100.4 95.8112 50.6311 104.413 94.3703 51.0525 104.03 94.5292 
51.4419 103.557 94.7601 51.7777 102.924 95.0688 52.0229 102.193 95.4278 
52.157 101.506 95.8235 52.1519 100.928 96.2732 52.0316 100.465 96.7524 
52.949 100.799 98.0273 53.1198 101.296 97.5376 53.3589 101.237 98.6778 
53.1176 102.002 97.1192 53.4767 101.872 98.219 53.7257 101.792 99.4167 
52.8865 102.784 96.8612 53.3755 102.687 97.8613 53.7455 102.537 99.0331 
54.1227 102.361 100.01 52.53 103.469 96.6571 53.0679 103.439 97.6274 
53.5294 103.335 98.7217 53.9899 103.148 99.7385 54.428 102.982 100.673 
52.1449 104.077 96.3963 52.6823 104.048 97.3827 53.1601 103.998 98.4594 
53.6124 103.864 99.5215 54.1154 103.73 100.522 54.435 103.527 101.615 
51.7229 104.604 96.1431 52.2382 104.626 97.118 52.7104 104.582 98.1721 
[...]
POINT_DATA 1002
SCALARS _paraPhi double
LOOKUP_TABLE default
6.2831853072 3.1415926536 6.2831853072 3.1415926536 4.7123889804 4.7123889804 1.5707963268 1.5707963268 3.6951670125 
5.7296109483 2.5880182947 0.5535743589 6.2831853072 6.2831853072 6.2831853072 6.2831853072 3.1415926536 3.1415926536 
3.1415926536 3.1415926536 3.1415926536 6.1053039672 5.898798347 5.6768734901 5.4599499503 5.2659633393 5.1032165617 
4.9713148346 4.8656852733 4.7809517865 0.17788134 0.38438696014 0.60631181711 0.82323535693 1.0172219679 1.1799687454 
1.3118704726 1.4175000338 1.5022335207 6.1892828907 6.1070320098 6.035312792 5.9728339911 5.9183214791 5.8706119594 
5.8286879411 5.7916808611 5.7588591896 0.093902416448 0.17615329733 0.2478725152 0.31035131605 0.36486382811 0.41257334776 
0.45449736604 0.4915044461 0.52432611754 3.3194739936 3.5259796137 3.7479044707 3.9648280105 4.1588146215 4.321561399 
4.4534631262 4.5590926874 4.6438261743 2.9637113136 2.7572056934 2.5352808365 2.3183572967 2.1243706857 1.9616239082 
1.829722181 1.7240926197 1.6393591329 3.23549507 3.3177459509 3.3894651688 3.4519439696 3.5064564817 3.5541660013 
3.5960900196 3.6330970997 3.6659187711 3.0476902371 2.9654393563 2.8937201384 2.8312413375 2.7767288255 2.7290193058 
2.6870952876 2.6500882075 2.617266536 6.2831853072 6.2831853072 6.2831853072 6.2831853072 3.1415926536 3.1415926536 
3.1415926536 3.1415926536 3.1415926536 6.1053039672 5.898798347 5.6768734901 5.4599499503 5.2659633393 5.1032165617 
4.9713148346 4.8656852733 4.7809517865 0.17788134 0.38438696014 0.60631181711 0.82323535693 1.0172219679 1.1799687454 
1.3118704726 1.4175000338 1.5022335207 6.1892828907 6.1070320098 6.035312792 5.9728339911 5.9183214791 5.8706119594 
5.8286879411 5.7916808611 5.7588591896 0.093902416448 0.17615329733 0.2478725152 0.31035131605 0.36486382811 0.41257334776 
0.45449736604 0.4915044461 0.52432611754 3.3194739936 3.5259796137 3.7479044707 3.9648280105 4.1588146215 4.321561399 
4.4534631262 4.5590926874 4.6438261743 2.9637113136 2.7572056934 2.5352808365 2.3183572967 2.1243706857 1.9616239082 
1.829722181 1.7240926197 1.6393591329 3.23549507 3.3177459509 3.3894651688 3.4519439696 3.5064564817 3.5541660013 
3.5960900196 3.6330970997 3.6659187711 3.0476902371 2.9654393563 2.8937201384 2.8312413375 2.7767288255 2.7290193058 
2.6870952876 2.6500882075 2.617266536 4.7123889804 4.7123889804 4.7123889804 4.7123889804 4.7123889804 4.7123889804 
4.7123889804 4.7123889804 4.7123889804 4.6087898617 4.4991390697 4.3857031936 4.2712800401 4.1588146215 4.0509635631 
3.94975894 3.8564636551 3.7716124825 4.8159880991 4.9256388911 5.0390747672 5.1534979207 5.2659633393 5.3738143976 
5.4750190208 5.5683143056 5.6531654782 4.6087898617 4.4991390697 4.3857031936 4.2712800401 4.1588146215 4.0509635631 
3.94975894 3.8564636551 3.7716124825 4.8159880991 4.9256388911 5.0390747672 5.1534979207 5.2659633393 5.3738143976 
5.4750190208 5.5683143056 5.6531654782 1.5707963268 1.5707963268 1.5707963268 1.5707963268 1.5707963268 1.5707963268 
1.5707963268 1.5707963268 1.5707963268 1.6743954455 1.7840462375 1.8974821136 2.0119052671 2.1243706857 2.232221744 
2.3334263672 2.426721652 2.5115728246 1.4671972081 1.3575464161 1.24411054 1.1296873865 1.0172219679 0.90937090954 
0.80816628637 0.71487100155 0.63001982895 1.6743954455 1.7840462375 1.8974821136 2.0119052671 2.1243706857 2.232221744 
2.3334263672 2.426721652 2.5115728246 1.4671972081 1.3575464161 1.24411054 1.1296873865 1.0172219679 0.90937090954 
0.80816628637 0.71487100155 0.63001982895 3.6007720849 3.4966939854 3.3839471039 3.2645756454 3.1415926536 3.0186096618 
2.8992382033 2.7864913217 2.6824132222 5.8240058758 5.9280839753 6.0408308569 6.1602023154 6.2831853072 0.12298299178 
0.2423544503 0.35510133185 0.45917943135 6.0560271438 5.7885595667 5.9702140275 5.5125918794 5.6029703303 5.7885595667 
5.2659633393 5.2659633393 5.2659633393 5.2659633393 5.0674903122 5.0120975802 4.9155579264 4.7123889804 4.1588146215 
4.9155579264 4.8353719722 4.7123889804 4.5092200343 4.1588146215 3.6362183941 4.8004512023 4.7123889804 4.5894059886 
4.4126803806 4.1588146215 3.8218076305 3.4545639333 4.7123889804 4.6243267584 4.5092200343 4.3572876485 4.1588146215 
3.9121860814 3.6362183941 3.368750817 6.0174235957 5.9434319871 5.8263323547 5.8809213739 5.7674481418 5.6279784266 
5.8278025282 5.718968232 5.5891129425 5.4372443565 5.7823484065 5.678536687 5.5575666702 5.4192596322 5.2659633393 
5.743164462 5.6444075337 5.5314983644 5.4046708639 5.2659633393 5.1195510325 5.7091357773 5.6152775188 5.5096229709 
5.3926039573 5.2659633393 5.1329233157 4.9978930058 5.6793730533 5.5901633916 5.4910209005 5.3824597928 5.2659633393 
5.1440684722 5.0201624502 4.8979782167 5.5683143056 5.4750190208 5.4750190208 5.3738143976 5.3738143976 5.3738143976 
5.2659633393 5.2659633393 5.2659633393 5.2659633393 5.1534979207 5.1534979207 5.1534979207 5.1534979207 5.1534979207 
5.0390747672 5.0390747672 5.0390747672 5.0390747672 5.0390747672 5.0390747672 4.9256388911 4.9256388911 4.9256388911 
4.9256388911 4.9256388911 4.9256388911 4.9256388911 4.8159880991 4.8159880991 4.8159880991 4.8159880991 4.8159880991 
4.8159880991 4.8159880991 4.8159880991 4.6087898617 4.6087898617 4.4991390697 4.6087898617 4.4991390697 4.3857031936 
4.6087898617 4.4991390697 4.3857031936 4.2712800401 4.6087898617 4.4991390697 4.3857031936 4.2712800401 4.1588146215 
4.6087898617 4.4991390697 4.3857031936 4.2712800401 4.1588146215 4.0509635631 4.6087898617 4.4991390697 4.3857031936 
4.2712800401 4.1588146215 4.0509635631 3.94975894 4.6087898617 4.4991390697 4.3857031936 4.2712800401 4.1588146215 
4.0509635631 3.94975894 3.8564636551 4.526799744 4.4046155105 4.426884955 4.2807094886 4.2918546451 4.3052269283 
4.1588146215 4.1588146215 4.1588146215 4.1588146215 4.042318168 4.0321740035 4.0201070968 4.0055183285 3.9875336042 
3.9337570603 3.9151549899 3.8932795963 3.8672112905 3.8356650183 3.7967995342 3.8346145692 3.809500442 3.7803704271 
3.7462412737 3.7058097288 3.657329819 3.5984456061 3.7454049075 3.7156421835 3.6816134988 3.6424295543 3.5969754326 
3.5438565869 3.4813459737 3.4073543651 3.5642842451 3.4524645613 3.5233842518 3.3320300872 3.403123212 3.4773852225 
3.20576226 3.2746326772 3.348015857 3.4255060145 3.0774230472 3.1415926536 3.2112816139 3.2864685043 3.3668817272 
2.95115522 3.00855263 3.0719036933 3.1415926536 3.2178377658 3.3005964304 2.8307207459 2.8800620952 2.9351694502 
2.9967168029 3.0653475414 3.1415926536 3.225752376 2.718901062 2.7598010554 2.8058000847 2.8576792927 2.91630358 
2.9825888767 3.0574329311 3.1415926536 3.5642842451 3.5233842518 3.4524645613 3.4773852225 3.403123212 3.3320300872 
3.4255060145 3.348015857 3.2746326772 3.20576226 3.3668817272 3.2864685043 3.2112816139 3.1415926536 3.0774230472 
3.3005964304 3.2178377658 3.1415926536 3.0719036933 3.00855263 2.95115522 3.225752376 3.1415926536 3.0653475414 
2.9967168029 2.9351694502 2.8800620952 2.8307207459 3.1415926536 3.0574329311 2.9825888767 2.91630358 2.8576792927 
2.8058000847 2.7598010554 2.718901062 4.526799744 4.426884955 4.4046155105 4.3052269283 4.2918546451 4.2807094886 
4.1588146215 4.1588146215 4.1588146215 4.1588146215 3.9875336042 4.0055183285 4.0201070968 4.0321740035 4.042318168 
3.7967995342 3.8356650183 3.8672112905 3.8932795963 3.9151549899 3.9337570603 3.5984456061 3.657329819 3.7058097288 
3.7462412737 3.7803704271 3.809500442 3.8346145692 3.4073543651 3.4813459737 3.5438565869 3.5969754326 3.6424295543 
3.6816134988 3.7156421835 3.7454049075 4.7123889804 4.8004512023 4.6243267584 4.9155579264 4.7123889804 4.5092200343 
5.0674903122 4.8353719722 4.5894059886 4.3572876485 5.2659633393 5.0120975802 4.7123889804 4.4126803806 4.1588146215 
5.5125918794 5.2659633393 4.9155579264 4.5092200343 4.1588146215 3.9121860814 5.7885595667 5.6029703303 5.2659633393 
4.7123889804 4.1588146215 3.8218076305 3.6362183941 6.0560271438 5.9702140275 5.7885595667 5.2659633393 4.1588146215 
3.6362183941 3.4545639333 3.368750817 0.22715816343 0.49462574053 0.3129712797 0.77059342779 0.68021497688 0.49462574053 
1.0172219679 1.0172219679 1.0172219679 1.0172219679 1.2156949949 1.271087727 1.3676273807 1.5707963268 2.1243706857 
1.3676273807 1.447813335 1.5707963268 1.7739652728 2.1243706857 2.6469669131 1.4827341049 1.5707963268 1.6937793186 
1.8705049266 2.1243706857 2.4613776767 2.8286213739 1.5707963268 1.6588585487 1.7739652728 1.9258976586 2.1243706857 
2.3709992258 2.6469669131 2.9144344902 1.7563855631 1.8785697967 1.8563003522 2.0024758186 1.9913306621 1.9779583789 
2.1243706857 2.1243706857 2.1243706857 2.1243706857 2.2408671392 2.2510113037 2.2630782103 2.2776669786 2.295651703 
2.3494282469 2.3680303173 2.3899057108 2.4159740166 2.4475202889 2.486385773 2.448570738 2.4736848652 2.5028148801 
2.5369440334 2.5773755784 2.6258554882 2.6847397011 2.5377803997 2.5675431237 2.6015718084 2.6407557529 2.6862098746 
2.7393287203 2.8018393335 2.8758309421 1.6743954455 1.6743954455 1.7840462375 1.6743954455 1.7840462375 1.8974821136 
1.6743954455 1.7840462375 1.8974821136 2.0119052671 1.6743954455 1.7840462375 1.8974821136 2.0119052671 2.1243706857 
1.6743954455 1.7840462375 1.8974821136 2.0119052671 2.1243706857 2.232221744 1.6743954455 1.7840462375 1.8974821136 
2.0119052671 2.1243706857 2.232221744 2.3334263672 1.6743954455 1.7840462375 1.8974821136 2.0119052671 2.1243706857 
2.232221744 2.3334263672 2.426721652 1.4671972081 1.3575464161 1.4671972081 1.24411054 1.3575464161 1.4671972081 
1.1296873865 1.24411054 1.3575464161 1.4671972081 1.0172219679 1.1296873865 1.24411054 1.3575464161 1.4671972081 
0.90937090954 1.0172219679 1.1296873865 1.24411054 1.3575464161 1.4671972081 0.80816628637 0.90937090954 1.0172219679 
1.1296873865 1.24411054 1.3575464161 1.4671972081 0.71487100155 0.80816628637 0.90937090954 1.0172219679 1.1296873865 
1.24411054 1.3575464161 1.4671972081 0.60381225391 0.57404952988 0.69302191562 0.54002084522 0.66790778838 0.79216440667 
0.50083690068 0.63877777351 0.77356233629 0.90072551443 0.45538277901 0.60464862014 0.75168694275 0.89058134991 1.0172219679 
0.40226393329 0.56421707518 0.72561863695 0.87851444325 1.0172219679 1.139116835 0.33975332011 0.51573716537 0.69407236469 
0.86392567495 1.0172219679 1.1502619915 1.2630228569 0.26576171152 0.45685295248 0.6552068806 0.84594095064 1.0172219679 
1.1636342747 1.2852923014 1.3852070904 0.22715816343 0.3129712797 0.49462574053 0.49462574053 0.68021497688 0.77059342779 
1.0172219679 1.0172219679 1.0172219679 1.0172219679 2.1243706857 1.5707963268 1.3676273807 1.271087727 1.2156949949 
2.6469669131 2.1243706857 1.7739652728 1.5707963268 1.447813335 1.3676273807 2.8286213739 2.4613776767 2.1243706857 
1.8705049266 1.6937793186 1.5707963268 1.4827341049 2.9144344902 2.6469669131 2.3709992258 2.1243706857 1.9258976586 
1.7739652728 1.6588585487 1.5707963268 1.7563855631 1.8563003522 1.8785697967 1.9779583789 1.9913306621 2.0024758186 
2.1243706857 2.1243706857 2.1243706857 2.1243706857 2.295651703 2.2776669786 2.2630782103 2.2510113037 2.2408671392 
2.486385773 2.4475202889 2.4159740166 2.3899057108 2.3680303173 2.3494282469 2.6847397011 2.6258554882 2.5773755784 
2.5369440334 2.5028148801 2.4736848652 2.448570738 2.8758309421 2.8018393335 2.7393287203 2.6862098746 2.6407557529 
2.6015718084 2.5675431237 2.5377803997 5.8604937156 5.901393709 5.9723133995 5.9473927383 6.0216547488 6.0927478736 
5.9992719463 6.0767621038 6.1501452836 6.2190157008 6.0578962336 6.1383094565 6.2134963469 0 0.064169606361 
6.1241815303 6.206940195 6.2831853072 0.069688960264 0.13304002361 0.19043743361 6.1990255847 0 0.07624511221 
0.14487585072 0.20642320337 0.26153055843 0.3108719077 0 0.084159722458 0.15900377685 0.22528907359 0.28391336087 
0.3357925689 0.38179159818 0.42269159155 5.8604937156 5.9723133995 5.901393709 6.0927478736 6.0216547488 5.9473927383 
6.2190157008 6.1501452836 6.0767621038 5.9992719463 0.064169606361 0 6.2134963469 6.1383094565 6.0578962336 
0.19043743361 0.13304002361 0.069688960264 6.2831853072 6.206940195 6.1241815303 0.3108719077 0.26153055843 0.20642320337 
0.14487585072 0.07624511221 6.2831853072 6.1990255847 0.42269159155 0.38179159818 0.3357925689 0.28391336087 0.22528907359 
0.15900377685 0.084159722458 0 5.6793730533 5.7091357773 5.5901633916 5.743164462 5.6152775188 5.4910209005 
5.7823484065 5.6444075337 5.5096229709 5.3824597928 5.8278025282 5.678536687 5.5314983644 5.3926039573 5.2659633393 
5.8809213739 5.718968232 5.5575666702 5.4046708639 5.2659633393 5.1440684722 5.9434319871 5.7674481418 5.5891129425 
5.4192596322 5.2659633393 5.1329233157 5.0201624502 6.0174235957 5.8263323547 5.6279784266 5.4372443565 5.2659633393 
5.1195510325 4.9978930058 4.8979782167 1.3852070904 1.2852923014 1.2630228569 1.1636342747 1.1502619915 1.139116835 
1.0172219679 1.0172219679 1.0172219679 1.0172219679 0.84594095064 0.86392567495 0.87851444325 0.89058134991 0.90072551443 
0.6552068806 0.69407236469 0.72561863695 0.75168694275 0.77356233629 0.79216440667 0.45685295248 0.51573716537 0.56421707518 
0.60464862014 0.63877777351 0.66790778838 0.69302191562 0.26576171152 0.33975332011 0.40226393329 0.45538277901 0.50083690068 
0.54002084522 0.57404952988 0.60381225391 
