# vtk DataFile Version 4.1
vtk output
ASCII
DATASET POLYDATA
POINTS 1002 float
47.2829 94.2552 95.8881 48.874 97.1331 105.402 44.6942 102.482 92.6392 
45.093 106.123 101.757 51.6278 100.175 100.97 50.0854 104.748 98.495 
41.5935 97.6809 100.902 40.3953 101.236 99.3405 51.6927 103.66 104.73 
47.7884 99.0976 91.7163 43.3962 101.835 105.177 43.8489 97.2061 92.419 
47.124 95.2503 96.5404 46.9621 96.2163 97.3412 46.903 96.9829 98.354 
47.0022 97.4708 99.7615 47.2186 97.7849 101.33 47.6565 97.7721 102.592 
48.3077 97.2993 103.44 48.7374 96.8368 104.188 48.8484 96.853 104.869 
47.3781 95.0069 96.0065 47.3616 96.0095 96.2679 47.4923 96.9661 96.8312 
47.8232 97.8056 97.6958 48.2135 98.5778 98.7022 48.6282 99.2528 99.6096 
49.3394 99.636 100.249 50.2976 99.7262 100.612 51.0913 99.871 100.817 
46.9786 94.4063 96.1578 46.6018 94.6786 96.479 46.0806 94.9986 96.9066 
45.4999 95.4362 97.3847 44.994 95.9893 97.8975 44.3853 96.4465 98.5306 
43.6012 96.7706 99.2531 42.9337 97.1787 99.8834 42.3261 97.5312 100.427 
47.5423 93.6661 95.3859 47.8823 93.2665 94.9687 48.2351 93.2904 94.5697 
48.3618 93.9038 93.9874 48.2001 94.7876 93.449 47.9556 95.7884 93.0375 
47.8887 96.8164 92.5236 47.9387 97.7429 92.0417 47.9081 98.4967 91.8123 
47.1791 93.3814 95.5097 46.9114 92.8112 95.1179 46.5312 92.7406 94.5898 
46.142 93.1257 94.0492 45.6454 93.7054 93.5639 45.0541 94.3364 93.0959 
44.6225 95.1053 92.7462 44.3481 95.9309 92.5671 44.1114 96.6531 92.4882 
49.4986 97.3692 105.119 50.1113 97.5674 104.726 50.725 97.6964 104.254 
51.2814 97.9452 103.773 51.6276 98.3829 103.298 51.8042 98.8288 102.809 
51.8996 99.2539 102.372 51.881 99.6495 101.943 51.7681 99.9535 101.471 
48.3067 96.8786 105.278 47.7861 97.0603 104.863 47.0729 97.4546 104.265 
46.0299 97.6124 103.738 44.87 97.4534 103.369 43.9076 97.3422 102.91 
43.1581 97.3848 102.368 42.5877 97.5248 101.831 42.1246 97.6663 101.313 
49.3958 97.6446 105.666 50.0343 98.0614 105.898 50.5484 98.564 106.073 
51.0015 99.3741 106.109 51.4314 100.251 106.042 51.6738 101.082 105.897 
51.7518 101.901 105.664 51.7736 102.578 105.365 51.7484 103.12 105.028 
48.4611 97.3869 105.766 48.028 97.893 105.923 47.7044 98.5424 105.766 
47.4563 99.2317 105.385 46.9574 99.8934 105.158 46.1215 100.442 105.171 
45.2451 100.854 105.212 44.5029 101.181 105.24 43.8735 101.494 105.254 
44.662 102.768 93.6155 44.6278 103.112 94.6572 44.639 103.498 95.7567 
44.6937 103.926 96.8298 44.7186 104.405 97.8161 44.7934 104.852 98.7815 
44.9166 105.231 99.6866 44.9975 105.598 100.448 45.0297 105.916 101.115 
45.0041 102.718 92.8843 45.3679 102.979 93.2406 45.8286 103.275 93.7614 
46.374 103.543 94.4746 46.9121 103.748 95.3265 47.499 104.038 96.1188 
48.1458 104.334 96.8369 48.7819 104.514 97.511 49.4264 104.631 98.0766 
44.373 102.386 93.0783 44.0545 102.263 93.7 43.7283 102.139 94.4609 
43.3719 102.015 95.2553 42.988 101.877 96.1059 42.5627 101.745 97.0155 
42.0683 101.628 97.7857 41.5175 101.503 98.409 40.9508 101.37 98.9304 
44.9308 102.353 91.7821 45.2732 102.255 90.806 45.7056 102.177 89.8605 
46.1861 101.98 89.2447 46.6768 101.593 89.0893 47.0911 101.12 89.3447 
47.3182 100.608 89.883 47.4529 100.028 90.5411 47.6304 99.4979 91.1637 
44.5183 102.164 91.9212 44.3677 101.839 91.2637 44.2238 101.439 90.8177 
44.0329 100.918 90.5911 43.8107 100.308 90.5185 43.5724 99.5908 90.6273 
43.3941 98.7804 90.9041 43.4173 98.0644 91.3183 43.6256 97.5737 91.8719 
45.5409 106.348 101.484 46.052 106.505 101.129 46.7046 106.539 100.68 
47.4726 106.472 100.303 48.1839 106.267 100.056 48.7494 105.951 99.7884 
49.2035 105.671 99.4297 49.5628 105.384 99.099 49.8548 105.067 98.7776 
44.5617 105.785 101.589 44.0112 105.362 101.387 43.4885 104.823 101.155 
42.9528 104.242 100.9 42.374 103.685 100.647 41.8586 103.149 100.397 
41.4106 102.598 100.123 40.9766 102.101 99.8312 40.6271 101.654 99.5692 
45.5202 106.377 102.254 46.1071 106.545 102.793 46.8689 106.598 103.346 
47.7575 106.442 103.769 48.7056 106.15 104.046 49.5759 105.785 104.283 
50.2382 105.3 104.486 50.8032 104.763 104.6 51.2889 104.203 104.662 
44.8965 106.018 102.332 44.7256 105.779 102.916 44.5611 105.418 103.409 
44.3531 104.996 103.862 44.0649 104.54 104.307 43.793 104.068 104.703 
43.5911 103.564 105.051 43.437 102.978 105.259 43.363 102.365 105.27 
51.7584 100.597 100.746 51.8431 101.073 100.512 51.8977 101.553 100.222 
51.9773 102.061 99.8129 52.0125 102.61 99.3825 51.8313 103.157 99.1136 
51.4762 103.738 98.9384 51.0794 104.249 98.7324 50.6036 104.577 98.5797 
52.17 100.405 101.405 52.8172 100.543 101.756 53.4676 100.676 102.084 
53.8934 101.026 102.58 53.9557 101.65 103.278 53.7035 102.227 103.825 
53.195 102.599 104.076 52.625 102.938 104.278 52.1454 103.305 104.521 
51.1457 100.2 100.359 50.6206 100.197 99.6852 50.0417 100.167 98.8602 
49.476 100.023 97.8343 49.0443 99.7568 96.6245 48.7677 99.4144 95.3465 
48.4926 99.1513 94.219 48.1859 99.0568 93.3159 47.9462 99.0657 92.514 
50.6104 105.013 99.0393 51.0957 105.194 99.6766 51.5245 105.3 100.421 
51.9261 105.403 101.201 52.2047 105.38 101.975 52.2668 105.124 102.699 
52.2038 104.776 103.354 52.0903 104.418 103.908 51.9003 104.018 104.343 
49.8236 104.35 98.0251 49.4918 103.872 97.4914 49.1333 103.274 96.8224 
48.7866 102.626 96.0111 48.4664 102.004 95.1419 48.2171 101.405 94.2151 
48.0428 100.792 93.3076 47.8975 100.189 92.6091 47.8074 99.6189 92.1158 
40.7345 97.6779 100.928 39.8109 97.6742 100.862 39.0987 97.7848 100.574 
38.6822 98.0945 100.155 38.5398 98.7112 99.8574 38.7015 99.4396 99.712 
39.0608 100.007 99.6107 39.4962 100.449 99.5061 39.9619 100.865 99.4176 
41.1578 97.7533 101.539 40.864 97.931 102.089 40.8441 98.2786 102.554 
40.9951 98.6804 103.039 41.2864 99.1969 103.454 41.7044 99.7968 103.772 
42.187 100.34 104.146 42.6583 100.858 104.53 43.0674 101.367 104.871 
41.6741 97.6183 100.229 41.9108 97.5022 99.5177 42.2911 97.3576 98.6425 
42.663 97.1336 97.5771 42.9857 96.9139 96.4607 43.2417 96.7579 95.4279 
43.447 96.719 94.5196 43.6553 96.8497 93.7872 43.819 97.0469 93.1387 
40.0487 101.349 99.8669 39.8088 101.494 100.462 39.6868 101.647 101.177 
39.7502 101.819 102.065 40.042 101.975 102.923 40.5654 102.044 103.566 
41.2843 102.019 104.034 42.07 101.958 104.437 42.7834 101.897 104.824 
40.6123 100.906 98.8811 40.9113 100.549 98.3542 41.2809 100.166 97.6795 
41.7003 99.769 96.8372 42.12 99.35 95.9086 42.5292 98.896 94.995 
42.9589 98.4485 94.17 43.3297 98.0313 93.4819 43.6042 97.6141 92.9015 
51.2026 103.648 105.079 50.6538 103.644 105.431 49.9581 103.613 105.72 
49.0546 103.554 105.896 48.0152 103.414 105.909 46.9157 103.102 105.843 
45.7712 102.684 105.852 44.748 102.334 105.81 43.9768 102.071 105.563 
47.7494 98.7268 90.988 47.6337 98.3409 90.5177 47.2106 98.108 90.4666 
46.5185 97.9413 90.6224 45.9396 97.7083 90.7349 45.4166 97.4219 90.8381 
44.7625 97.1418 90.9442 44.1997 96.9822 91.1718 43.9472 97.0287 91.6919 
47.2336 96.0497 96.8403 47.3768 96.9224 97.3613 47.1655 96.9502 97.8601 
47.6456 97.7149 98.1647 47.4656 97.6855 98.6785 47.2246 97.5901 99.1501 
48.044 98.4279 99.1596 47.8422 98.325 99.7128 47.6056 98.1913 100.247 
47.427 97.9476 100.793 48.5291 99.0587 100.109 48.3993 98.8366 100.665 
48.1548 98.644 101.262 47.9821 98.3513 101.791 47.8895 98.0119 102.218 
49.1946 99.4917 100.812 49.1418 99.189 101.346 49.0091 98.8824 101.881 
48.8208 98.5568 102.396 48.7354 98.1159 102.767 48.5951 97.6708 103.101 
50.1619 99.6269 101.188 50.0941 99.352 101.715 50.0251 98.9907 102.162 
49.8966 98.6 102.609 49.7253 98.1425 103.019 49.4983 97.6772 103.396 
49.153 97.2421 103.798 51.1108 99.6926 101.344 51.0788 99.4457 101.854 
51.0236 99.0847 102.283 50.92 98.6688 102.706 50.7521 98.1802 103.154 
50.4234 97.7356 103.59 49.9413 97.4351 104.048 49.3862 97.1262 104.506 
47.5431 94.6281 95.4491 47.7815 94.3564 95.0475 47.4846 95.8146 95.7236 
47.9851 94.4188 94.625 47.6785 95.7127 95.3149 47.6428 96.9576 96.3372 
47.9952 94.9968 94.1278 47.7893 95.9021 94.8945 47.8345 97.0828 95.9459 
48.0181 97.9257 97.2798 47.891 95.9348 93.7378 47.8274 96.4822 94.511 
47.9522 97.3947 95.5679 48.1984 98.139 96.9026 48.4084 98.7187 98.3042 
47.9123 96.8956 93.3346 47.9786 97.2036 94.1448 48.1333 97.7864 95.184 
48.3884 98.3786 96.503 48.6959 98.8235 97.8693 48.9584 99.3008 99.1439 
48.0379 97.7386 92.8777 48.222 97.8344 93.7298 48.4209 98.1478 94.7666 
48.6201 98.6259 96.0841 48.95 99.0201 97.4386 49.3549 99.3469 98.6742 
49.7741 99.6259 99.734 48.0552 98.4644 92.6121 48.3 98.4449 93.4304 
48.5651 98.5791 94.407 48.7634 98.9493 95.6752 49.0449 99.3561 97.0286 
49.5134 99.6294 98.2502 50.0343 99.7969 99.2851 50.5755 99.8545 100.108 
47.9976 99.6284 92.9954 48.1534 100.261 93.6 48.3092 99.7253 93.9284 
48.3874 100.917 94.41 48.5659 100.434 94.6613 48.6976 99.9308 94.9852 
48.6679 101.544 95.3232 48.8938 101.065 95.5141 49.0595 100.613 95.7924 
49.0737 100.177 96.2019 49.0037 102.207 96.1972 49.2108 101.705 96.4216 
49.4276 101.198 96.6626 49.5415 100.748 97.0246 49.5009 100.386 97.4596 
49.4353 102.924 97 49.6662 102.445 97.2549 49.8616 101.918 97.5302 
50.0537 101.371 97.833 50.1161 100.91 98.2018 50.0662 100.558 98.5598 
49.9063 103.592 97.64 50.2573 103.119 97.8584 50.5169 102.596 98.1205 
50.6986 102.078 98.4091 50.7749 101.525 98.7582 50.7414 101.06 99.1095 
50.6799 100.637 99.4168 50.3086 104.14 98.1368 50.7447 103.723 98.3154 
51.1131 103.156 98.5232 51.3769 102.629 98.7467 51.451 102.101 99.0842 
51.3921 101.579 99.4886 51.318 101.109 99.8346 51.2568 100.63 100.112 
52.327 100.853 101.165 52.4191 101.376 100.927 52.9623 101.069 101.492 
52.45 101.953 100.631 53.0105 101.756 101.259 53.5514 101.403 101.803 
52.4791 102.568 100.184 52.969 102.512 100.991 53.5019 102.353 101.597 
53.8907 102.016 102.337 52.3752 103.203 99.7751 52.8615 103.211 100.581 
53.3508 103.201 101.374 53.7472 103.037 102.13 53.8621 102.641 102.998 
52.0401 103.825 99.5658 52.572 103.882 100.254 53.0815 103.888 101.068 
53.4809 103.805 101.928 53.6038 103.475 102.721 53.4438 102.993 103.459 
51.6383 104.38 99.3637 52.1466 104.471 100.066 52.6626 104.526 100.833 
[...]
POINT_DATA 1002
SCALARS _paraPhi double
LOOKUP_TABLE default
6.2831853072 3.1415926536 6.2831853072 3.1415926536 4.7123889804 4.7123889804 1.5707963268 1.5707963268 3.6951670125 
5.7296109483 2.5880182947 0.5535743589 6.2831853072 6.2831853072 6.2831853072 6.2831853072 3.1415926536 3.1415926536 
3.1415926536 3.1415926536 3.1415926536 6.1053039672 5.898798347 5.6768734901 5.4599499503 5.2659633393 5.1032165617 
4.9713148346 4.8656852733 4.7809517865 0.17788134 0.38438696014 0.60631181711 0.82323535693 1.0172219679 1.1799687454 
1.3118704726 1.4175000338 1.5022335207 6.1892828907 6.1070320098 6.035312792 5.9728339911 5.9183214791 5.8706119594 
5.8286879411 5.7916808611 5.7588591896 0.093902416448 0.17615329733 0.2478725152 0.31035131605 0.36486382811 0.41257334776 
0.45449736604 0.4915044461 0.52432611754 3.3194739936 3.5259796137 3.7479044707 3.9648280105 4.1588146215 4.321561399 
4.4534631262 4.5590926874 4.6438261743 2.9637113136 2.7572056934 2.5352808365 2.3183572967 2.1243706857 1.9616239082 
1.829722181 1.7240926197 1.6393591329 3.23549507 3.3177459509 3.3894651688 3.4519439696 3.5064564817 3.5541660013 
3.5960900196 3.6330970997 3.6659187711 3.0476902371 2.9654393563 2.8937201384 2.8312413375 2.7767288255 2.7290193058 
2.6870952876 2.6500882075 2.617266536 6.2831853072 6.2831853072 6.2831853072 6.2831853072 3.1415926536 3.1415926536 
3.1415926536 3.1415926536 3.1415926536 6.1053039672 5.898798347 5.6768734901 5.4599499503 5.2659633393 5.1032165617 
4.9713148346 4.8656852733 4.7809517865 0.17788134 0.38438696014 0.60631181711 0.82323535693 1.0172219679 1.1799687454 
1.3118704726 1.4175000338 1.5022335207 6.1892828907 6.1070320098 6.035312792 5.9728339911 5.9183214791 5.8706119594 
5.8286879411 5.7916808611 5.7588591896 0.093902416448 0.17615329733 0.2478725152 0.31035131605 0.36486382811 0.41257334776 
0.45449736604 0.4915044461 0.52432611754 3.3194739936 3.5259796137 3.7479044707 3.9648280105 4.1588146215 4.321561399 
4.4534631262 4.5590926874 4.6438261743 2.9637113136 2.7572056934 2.5352808365 2.3183572967 2.1243706857 1.9616239082 
1.829722181 1.7240926197 1.6393591329 3.23549507 3.3177459509 3.3894651688 3.4519439696 3.5064564817 3.5541660013 
3.5960900196 3.6330970997 3.6659187711 3.0476902371 2.9654393563 2.8937201384 2.8312413375 2.7767288255 2.7290193058 
2.6870952876 2.6500882075 2.617266536 4.7123889804 4.7123889804 4.7123889804 4.7123889804 4.7123889804 4.7123889804 
4.7123889804 4.7123889804 4.7123889804 4.6087898617 4.4991390697 4.3857031936 4.2712800401 4.1588146215 4.0509635631 
3.94975894 3.8564636551 3.7716124825 4.8159880991 4.9256388911 5.0390747672 5.1534979207 5.2659633393 5.3738143976 
5.4750190208 5.5683143056 5.6531654782 4.6087898617 4.4991390697 4.3857031936 4.2712800401 4.1588146215 4.0509635631 
3.94975894 3.8564636551 3.7716124825 4.8159880991 4.9256388911 5.0390747672 5.1534979207 5.2659633393 5.3738143976 
5.4750190208 5.5683143056 5.6531654782 1.5707963268 1.5707963268 1.5707963268 1.5707963268 1.5707963268 1.5707963268 
1.5707963268 1.5707963268 1.5707963268 1.6743954455 1.7840462375 1.8974821136 2.0119052671 2.1243706857 2.232221744 
2.3334263672 2.426721652 2.5115728246 1.4671972081 1.3575464161 1.24411054 1.1296873865 1.0172219679 0.90937090954 
0.80816628637 0.71487100155 0.63001982895 1.6743954455 1.7840462375 1.8974821136 2.0119052671 2.1243706857 2.232221744 
2.3334263672 2.426721652 2.5115728246 1.4671972081 1.3575464161 1.24411054 1.1296873865 1.0172219679 0.90937090954 
0.80816628637 0.71487100155 0.63001982895 3.6007720849 3.4966939854 3.3839471039 3.2645756454 3.1415926536 3.0186096618 
2.8992382033 2.7864913217 2.6824132222 5.8240058758 5.9280839753 6.0408308569 6.1602023154 6.2831853072 0.12298299178 
0.2423544503 0.35510133185 0.45917943135 6.0560271438 5.7885595667 5.9702140275 5.5125918794 5.6029703303 5.7885595667 
5.2659633393 5.2659633393 5.2659633393 5.2659633393 5.0674903122 5.0120975802 4.9155579264 4.7123889804 4.1588146215 
4.9155579264 4.8353719722 4.7123889804 4.5092200343 4.1588146215 3.6362183941 4.8004512023 4.7123889804 4.5894059886 
4.4126803806 4.1588146215 3.8218076305 3.4545639333 4.7123889804 4.6243267584 4.5092200343 4.3572876485 4.1588146215 
3.9121860814 3.6362183941 3.368750817 6.0174235957 5.9434319871 5.8263323547 5.8809213739 5.7674481418 5.6279784266 
5.8278025282 5.718968232 5.5891129425 5.4372443565 5.7823484065 5.678536687 5.5575666702 5.4192596322 5.2659633393 
5.743164462 5.6444075337 5.5314983644 5.4046708639 5.2659633393 5.1195510325 5.7091357773 5.6152775188 5.5096229709 
5.3926039573 5.2659633393 5.1329233157 4.9978930058 5.6793730533 5.5901633916 5.4910209005 5.3824597928 5.2659633393 
5.1440684722 5.0201624502 4.8979782167 5.5683143056 5.4750190208 5.4750190208 5.3738143976 5.3738143976 5.3738143976 
5.2659633393 5.2659633393 5.2659633393 5.2659633393 5.1534979207 5.1534979207 5.1534979207 5.1534979207 5.1534979207 
5.0390747672 5.0390747672 5.0390747672 5.0390747672 5.0390747672 5.0390747672 4.9256388911 4.9256388911 4.9256388911 
4.9256388911 4.9256388911 4.9256388911 4.9256388911 4.8159880991 4.8159880991 4.8159880991 4.8159880991 4.8159880991 
4.8159880991 4.8159880991 4.8159880991 4.6087898617 4.6087898617 4.4991390697 4.6087898617 4.4991390697 4.3857031936 
4.6087898617 4.4991390697 4.3857031936 4.2712800401 4.6087898617 4.4991390697 4.3857031936 4.2712800401 4.1588146215 
4.6087898617 4.4991390697 4.3857031936 4.2712800401 4.1588146215 4.0509635631 4.6087898617 4.4991390697 4.3857031936 
4.2712800401 4.1588146215 4.0509635631 3.94975894 4.6087898617 4.4991390697 4.3857031936 4.2712800401 4.1588146215 
4.0509635631 3.94975894 3.8564636551 4.526799744 4.4046155105 4.426884955 4.2807094886 4.2918546451 4.3052269283 
4.1588146215 4.1588146215 4.1588146215 4.1588146215 4.042318168 4.0321740035 4.0201070968 4.0055183285 3.9875336042 
3.9337570603 3.9151549899 3.8932795963 3.8672112905 3.8356650183 3.7967995342 3.8346145692 3.809500442 3.7803704271 
3.7462412737 3.7058097288 3.657329819 3.5984456061 3.7454049075 3.7156421835 3.6816134988 3.6424295543 3.5969754326 
3.5438565869 3.4813459737 3.4073543651 3.5642842451 3.4524645613 3.5233842518 3.3320300872 3.403123212 3.4773852225 
3.20576226 3.2746326772 3.348015857 3.4255060145 3.0774230472 3.1415926536 3.2112816139 3.2864685043 3.3668817272 
2.95115522 3.00855263 3.0719036933 3.1415926536 3.2178377658 3.3005964304 2.8307207459 2.8800620952 2.9351694502 
2.9967168029 3.0653475414 3.1415926536 3.225752376 2.718901062 2.7598010554 2.8058000847 2.8576792927 2.91630358 
2.9825888767 3.0574329311 3.1415926536 3.5642842451 3.5233842518 3.4524645613 3.4773852225 3.403123212 3.3320300872 
3.4255060145 3.348015857 3.2746326772 3.20576226 3.3668817272 3.2864685043 3.2112816139 3.1415926536 3.0774230472 
3.3005964304 3.2178377658 3.1415926536 3.0719036933 3.00855263 2.95115522 3.225752376 3.1415926536 3.0653475414 
2.9967168029 2.9351694502 2.8800620952 2.8307207459 3.1415926536 3.0574329311 2.9825888767 2.91630358 2.8576792927 
2.8058000847 2.7598010554 2.718901062 4.526799744 4.426884955 4.4046155105 4.3052269283 4.2918546451 4.2807094886 
4.1588146215 4.1588146215 4.1588146215 4.1588146215 3.9875336042 4.0055183285 4.0201070968 4.0321740035 4.042318168 
3.7967995342 3.8356650183 3.8672112905 3.8932795963 3.9151549899 3.9337570603 3.5984456061 3.657329819 3.7058097288 
3.7462412737 3.7803704271 3.809500442 3.8346145692 3.4073543651 3.4813459737 3.5438565869 3.5969754326 3.6424295543 
3.6816134988 3.7156421835 3.7454049075 4.7123889804 4.8004512023 4.6243267584 4.9155579264 4.7123889804 4.5092200343 
5.0674903122 4.8353719722 4.5894059886 4.3572876485 5.2659633393 5.0120975802 4.7123889804 4.4126803806 4.1588146215 
5.5125918794 5.2659633393 4.9155579264 4.5092200343 4.1588146215 3.9121860814 5.7885595667 5.6029703303 5.2659633393 
4.7123889804 4.1588146215 3.8218076305 3.6362183941 6.0560271438 5.9702140275 5.7885595667 5.2659633393 4.1588146215 
3.6362183941 3.4545639333 3.368750817 0.22715816343 0.49462574053 0.3129712797 0.77059342779 0.68021497688 0.49462574053 
1.0172219679 1.0172219679 1.0172219679 1.0172219679 1.2156949949 1.271087727 1.3676273807 1.5707963268 2.1243706857 
1.3676273807 1.447813335 1.5707963268 1.7739652728 2.1243706857 2.6469669131 1.4827341049 1.5707963268 1.6937793186 
1.8705049266 2.1243706857 2.4613776767 2.8286213739 1.5707963268 1.6588585487 1.7739652728 1.9258976586 2.1243706857 
2.3709992258 2.6469669131 2.9144344902 1.7563855631 1.8785697967 1.8563003522 2.0024758186 1.9913306621 1.9779583789 
2.1243706857 2.1243706857 2.1243706857 2.1243706857 2.2408671392 2.2510113037 2.2630782103 2.2776669786 2.295651703 
2.3494282469 2.3680303173 2.3899057108 2.4159740166 2.4475202889 2.486385773 2.448570738 2.4736848652 2.5028148801 
2.5369440334 2.5773755784 2.6258554882 2.6847397011 2.5377803997 2.5675431237 2.6015718084 2.6407557529 2.6862098746 
2.7393287203 2.8018393335 2.8758309421 1.6743954455 1.6743954455 1.7840462375 1.6743954455 1.7840462375 1.8974821136 
1.6743954455 1.7840462375 1.8974821136 2.0119052671 1.6743954455 1.7840462375 1.8974821136 2.0119052671 2.1243706857 
1.6743954455 1.7840462375 1.8974821136 2.0119052671 2.1243706857 2.232221744 1.6743954455 1.7840462375 1.8974821136 
2.0119052671 2.1243706857 2.232221744 2.3334263672 1.6743954455 1.7840462375 1.8974821136 2.0119052671 2.1243706857 
2.232221744 2.3334263672 2.426721652 1.4671972081 1.3575464161 1.4671972081 1.24411054 1.3575464161 1.4671972081 
1.1296873865 1.24411054 1.3575464161 1.4671972081 1.0172219679 1.1296873865 1.24411054 1.3575464161 1.4671972081 
0.90937090954 1.0172219679 1.1296873865 1.24411054 1.3575464161 1.4671972081 0.80816628637 0.90937090954 1.0172219679 
1.1296873865 1.24411054 1.3575464161 1.4671972081 0.71487100155 0.80816628637 0.90937090954 1.0172219679 1.1296873865 
1.24411054 1.3575464161 1.4671972081 0.60381225391 0.57404952988 0.69302191562 0.54002084522 0.66790778838 0.79216440667 
0.50083690068 0.63877777351 0.77356233629 0.90072551443 0.45538277901 0.60464862014 0.75168694275 0.89058134991 1.0172219679 
0.40226393329 0.56421707518 0.72561863695 0.87851444325 1.0172219679 1.139116835 0.33975332011 0.51573716537 0.69407236469 
0.86392567495 1.0172219679 1.1502619915 1.2630228569 0.26576171152 0.45685295248 0.6552068806 0.84594095064 1.0172219679 
1.1636342747 1.2852923014 1.3852070904 0.22715816343 0.3129712797 0.49462574053 0.49462574053 0.68021497688 0.77059342779 
1.0172219679 1.0172219679 1.0172219679 1.0172219679 2.1243706857 1.5707963268 1.3676273807 1.271087727 1.2156949949 
2.6469669131 2.1243706857 1.7739652728 1.5707963268 1.447813335 1.3676273807 2.8286213739 2.4613776767 2.1243706857 
1.8705049266 1.6937793186 1.5707963268 1.4827341049 2.9144344902 2.6469669131 2.3709992258 2.1243706857 1.9258976586 
1.7739652728 1.6588585487 1.5707963268 1.7563855631 1.8563003522 1.8785697967 1.9779583789 1.9913306621 2.0024758186 
2.1243706857 2.1243706857 2.1243706857 2.1243706857 2.295651703 2.2776669786 2.2630782103 2.2510113037 2.2408671392 
2.486385773 2.4475202889 2.4159740166 2.3899057108 2.3680303173 2.3494282469 2.6847397011 2.6258554882 2.5773755784 
2.5369440334 2.5028148801 2.4736848652 2.448570738 2.8758309421 2.8018393335 2.7393287203 2.6862098746 2.6407557529 
2.6015718084 2.5675431237 2.5377803997 5.8604937156 5.901393709 5.9723133995 5.9473927383 6.0216547488 6.0927478736 
5.9992719463 6.0767621038 6.1501452836 6.2190157008 6.0578962336 6.1383094565 6.2134963469 0 0.064169606361 
6.1241815303 6.206940195 6.2831853072 0.069688960264 0.13304002361 0.19043743361 6.1990255847 0 0.07624511221 
0.14487585072 0.20642320337 0.26153055843 0.3108719077 0 0.084159722458 0.15900377685 0.22528907359 0.28391336087 
0.3357925689 0.38179159818 0.42269159155 5.8604937156 5.9723133995 5.901393709 6.0927478736 6.0216547488 5.9473927383 
6.2190157008 6.1501452836 6.0767621038 5.9992719463 0.064169606361 0 6.2134963469 6.1383094565 6.0578962336 
0.19043743361 0.13304002361 0.069688960264 6.2831853072 6.206940195 6.1241815303 0.3108719077 0.26153055843 0.20642320337 
0.14487585072 0.07624511221 6.2831853072 6.1990255847 0.42269159155 0.38179159818 0.3357925689 0.28391336087 0.22528907359 
0.15900377685 0.084159722458 0 5.6793730533 5.7091357773 5.5901633916 5.743164462 5.6152775188 5.4910209005 
5.7823484065 5.6444075337 5.5096229709 5.3824597928 5.8278025282 5.678536687 5.5314983644 5.3926039573 5.2659633393 
5.8809213739 5.718968232 5.5575666702 5.4046708639 5.2659633393 5.1440684722 5.9434319871 5.7674481418 5.5891129425 
5.4192596322 5.2659633393 5.1329233157 5.0201624502 6.0174235957 5.8263323547 5.6279784266 5.4372443565 5.2659633393 
5.1195510325 4.9978930058 4.8979782167 1.3852070904 1.2852923014 1.2630228569 1.1636342747 1.1502619915 1.139116835 
1.0172219679 1.0172219679 1.0172219679 1.0172219679 0.84594095064 0.86392567495 0.87851444325 0.89058134991 0.90072551443 
0.6552068806 0.69407236469 0.72561863695 0.75168694275 0.77356233629 0.79216440667 0.45685295248 0.51573716537 0.56421707518 
0.60464862014 0.63877777351 0.66790778838 0.69302191562 0.26576171152 0.33975332011 0.40226393329 0.45538277901 0.50083690068 
0.54002084522 0.57404952988 0.60381225391 
