# vtk DataFile Version 4.1
vtk output
ASCII
DATASET POLYDATA
POINTS 1002 float
46.78 95.2005 95.5749 49.138 97.7669 104.417 43.835 102.349 92.3418 
44.9974 105.08 101.576 53.2081 100.454 98.5246 50.9139 104.809 95.8789 
40.1521 95.2555 102.652 38.3825 100.709 99.89 52.797 104.397 105.251 
49.3746 99.0702 89.8856 43.0958 101.021 107.833 41.6552 95.8692 93.2648 
46.7057 95.833 96.2451 46.6882 96.4276 97.0211 46.6881 97.0096 97.9183 
46.6482 97.5946 98.9295 46.6953 98.0637 100.018 47.0111 98.2714 101.162 
47.5155 98.2821 102.21 48.1035 98.113 103.039 48.6935 97.8558 103.773 
47.0561 95.889 95.6106 47.5209 96.539 95.7269 48.0402 97.2562 95.9126 
48.5391 98.0414 96.1413 49.1148 98.785 96.4638 49.8079 99.3978 96.9277 
50.5868 99.8201 97.4363 51.4906 100.062 97.886 52.4053 100.252 98.2641 
46.5165 94.9251 96.0048 46.1328 94.7704 96.503 45.6395 94.7284 97.1035 
45.0969 94.749 97.8594 44.4195 94.8329 98.7257 43.5485 94.9962 99.6194 
42.6283 95.1643 100.515 41.7347 95.2237 101.366 40.8916 95.1899 102.103 
47.0395 95.0196 94.9978 47.4251 94.96 94.4757 47.9509 94.9807 93.9374 
48.5154 95.1339 93.2682 49.0035 95.5001 92.5246 49.2845 96.1289 91.8501 
49.3369 96.9164 91.2909 49.3116 97.7102 90.8021 49.3305 98.4376 90.3275 
46.7809 94.2345 95.2417 46.7659 93.1075 94.9722 46.4097 92.3539 94.7152 
45.6547 92.4083 94.3536 44.819 92.9678 93.8876 44.0629 93.5965 93.4772 
43.3415 94.2652 93.253 42.6879 94.928 93.1879 42.1338 95.4491 93.2015 
49.7078 97.9622 104.022 50.3883 98.1792 103.576 51.083 98.4332 103.102 
51.6456 98.7636 102.541 52.1553 99.0445 101.826 52.5998 99.2825 101.071 
52.8358 99.6482 100.435 52.9458 100.07 99.8629 53.0749 100.334 99.2203 
48.3175 97.5952 104.371 47.362 97.4226 104.262 46.454 97.121 104.168 
45.6735 96.696 104.098 44.8157 96.2852 103.951 43.7729 96.0332 103.694 
42.7117 95.8861 103.378 41.7397 95.683 103.09 40.8876 95.4412 102.864 
49.7523 98.0561 104.761 50.2664 98.606 105.058 50.7517 99.313 105.288 
51.3023 100.002 105.456 51.8713 100.66 105.68 52.3403 101.382 105.866 
52.6503 102.242 105.863 52.8252 103.136 105.732 52.8678 103.862 105.532 
48.8899 97.8525 105.009 48.4398 98.1598 105.567 47.8553 98.535 106.096 
47.237 98.8717 106.613 46.5737 99.2205 107.093 45.8587 99.5192 107.516 
45.0686 99.7489 107.858 44.2339 100.082 108.038 43.5538 100.554 108.008 
43.8587 102.722 93.052 43.8858 103.132 93.8519 43.9057 103.568 94.7268 
43.96 103.972 95.6967 44.03 104.345 96.6765 44.137 104.667 97.7199 
44.3016 104.865 98.8415 44.4783 105 99.8682 44.703 105.091 100.758 
44.3736 102.629 92.246 45.0181 102.921 92.2531 45.6674 103.291 92.3193 
46.3014 103.728 92.4586 47.0856 104.101 92.7782 48.0007 104.36 93.3345 
48.841 104.563 94.0205 49.5961 104.712 94.6875 50.2954 104.787 95.3009 
43.3424 102.273 92.9544 42.7807 102.173 93.6693 42.1512 102.055 94.4188 
41.5092 101.881 95.1992 40.8759 101.661 96.0381 40.2291 101.463 96.8606 
39.5783 101.304 97.6 39.0206 101.125 98.3213 38.6404 100.921 99.0937 
44.1551 102.152 91.5656 44.5357 101.955 90.7332 44.8727 101.809 89.8046 
45.2635 101.677 88.924 45.9888 101.461 88.4303 46.9157 101.122 88.4785 
47.7083 100.665 88.8229 48.34 100.12 89.1987 48.8883 99.575 89.5569 
43.5102 101.914 92.0448 43.1637 101.408 91.8159 42.789 100.864 91.6604 
42.3781 100.275 91.5783 41.9684 99.5452 91.5766 41.6915 98.6971 91.7648 
41.5713 97.8156 92.1512 41.52 97.0071 92.568 41.5414 96.3634 92.9236 
45.4892 105.337 101.076 46.0554 105.582 100.552 46.6631 105.811 99.9393 
47.3104 105.986 99.1698 48.0602 106.038 98.3356 48.8695 105.985 97.609 
49.5864 105.822 97.0606 50.1576 105.507 96.6311 50.5923 105.138 96.2414 
44.3177 104.802 101.566 43.5887 104.453 101.532 42.8456 104.062 101.44 
42.0771 103.615 101.298 41.2491 103.159 101.123 40.4505 102.723 100.906 
39.8192 102.197 100.66 39.2803 101.617 100.399 38.7897 101.137 100.124 
45.6135 105.184 102.078 46.2786 105.314 102.617 47.0324 105.469 103.193 
47.8943 105.545 103.754 48.8388 105.554 104.252 49.8546 105.555 104.686 
50.8172 105.447 104.994 51.5894 105.163 105.145 52.2305 104.788 105.224 
44.8908 104.863 102.378 44.735 104.61 103.172 44.5333 104.316 103.972 
44.3356 103.977 104.812 44.13 103.6 105.602 43.904 103.169 106.29 
43.692 102.696 106.911 43.4855 102.206 107.399 43.2722 101.652 107.696 
53.7059 100.696 98.1505 54.1063 101.064 97.6823 54.2635 101.6 97.2633 
54.0763 102.289 97.0012 53.6718 102.994 96.8018 53.2353 103.545 96.5613 
52.7134 103.971 96.3525 52.0789 104.332 96.1833 51.4686 104.598 96.0219 
53.8542 100.649 99.1545 54.4222 100.884 99.8679 54.8981 101.161 100.747 
55.3029 101.587 101.687 55.49 102.189 102.533 55.2256 102.788 103.264 
54.6229 103.313 103.83 54.0202 103.785 104.317 53.4307 104.148 104.815 
52.8286 100.402 97.6414 52.4161 100.313 96.6142 52.0883 100.091 95.4704 
51.8661 99.7406 94.3044 51.6462 99.3776 93.1531 51.4645 99.0234 92.0341 
51.2886 98.742 91.0731 50.8512 98.7031 90.4228 50.1298 98.8739 90.0747 
51.3271 104.996 96.6919 51.7492 105.181 97.6062 52.1924 105.352 98.6175 
52.6681 105.505 99.6717 53.0851 105.571 100.764 53.2954 105.465 101.895 
53.3023 105.246 102.954 53.1981 104.989 103.855 53.0265 104.707 104.613 
50.8459 104.445 95.1418 50.7455 104.004 94.3268 50.6004 103.511 93.4611 
50.4173 102.931 92.5787 50.2121 102.274 91.7212 50.0397 101.636 90.9342 
50.0014 100.972 90.2327 50.0102 100.24 89.7426 49.8238 99.5818 89.6349 
39.2854 95.3378 102.717 38.4354 95.5965 102.616 37.6912 95.951 102.422 
37.146 96.4799 102.203 36.9302 97.348 101.867 37.0334 98.2632 101.469 
37.3289 98.9881 101.113 37.6792 99.6178 100.734 38.0309 100.224 100.298 
39.9362 95.5508 103.253 39.8118 95.9749 103.856 39.8674 96.5178 104.446 
40.1247 97.1481 105.036 40.5126 97.805 105.654 40.94 98.4243 106.301 
41.3828 99.0443 106.924 41.8907 99.7118 107.412 42.4942 100.39 107.693 
39.8671 95.0459 102.068 39.6637 95.0082 101.182 39.6514 95.0744 100.02 
39.8313 95.0972 98.8134 40.1326 95.1098 97.6876 40.5104 95.2161 96.6205 
40.8938 95.3203 95.6474 41.2151 95.4251 94.7653 41.4668 95.6128 93.9677 
38.3743 100.764 100.866 38.4259 100.818 101.92 38.6604 100.865 102.923 
39.064 100.931 103.855 39.5664 101.024 104.789 40.1622 101.117 105.695 
40.8417 101.163 106.457 41.6016 101.135 107.046 42.3725 101.083 107.501 
38.2143 100.333 99.21 38.1626 99.7951 98.5151 38.2617 99.2003 97.7578 
38.4963 98.6666 96.9873 38.8224 98.0962 96.2529 39.2182 97.461 95.5085 
39.7432 96.9069 94.8164 40.4029 96.4806 94.2685 41.0716 96.1435 93.7682 
52.1777 104.294 105.838 51.4751 104.138 106.4 50.6356 103.907 106.922 
49.6509 103.613 107.425 48.5992 103.261 107.827 47.4547 102.824 108.077 
46.1937 102.323 108.211 44.9827 101.827 108.212 43.9604 101.388 108.062 
48.5347 98.891 90.066 47.7183 98.5786 90.2186 46.8986 98.1393 90.3583 
45.9615 97.7243 90.6215 45.0015 97.3563 90.9628 44.1172 96.8746 91.1902 
43.2807 96.334 91.3974 42.5826 95.9981 91.8541 42.0851 95.898 92.5424 
47.0627 96.4709 96.3263 47.523 97.1698 96.4821 47.0991 97.0751 97.1829 
48.0462 97.9075 96.7216 47.59 97.7753 97.421 47.147 97.6608 98.1796 
48.6647 98.618 97.0771 48.2026 98.4358 97.7872 47.7631 98.2601 98.5175 
47.229 98.1671 99.258 49.4203 99.2314 97.5645 48.9892 99.013 98.2761 
48.5571 98.7588 99.006 48.0971 98.5495 99.6955 47.4945 98.4513 100.438 
50.2724 99.6738 98.12 49.957 99.4227 98.8061 49.5426 99.1539 99.549 
49.1227 98.8638 100.274 48.6089 98.6521 100.976 47.9971 98.5119 101.66 
51.2224 99.9211 98.6011 51.0243 99.6201 99.2524 50.7148 99.3219 99.93 
50.2506 99.0963 100.694 49.776 98.8614 101.44 49.2016 98.6496 102.112 
48.5966 98.4161 102.63 52.2078 100.115 98.9653 52.0667 99.7911 99.5967 
51.8995 99.3939 100.186 51.4951 99.1492 100.887 50.9689 98.9777 101.666 
50.4445 98.7335 102.358 49.8464 98.4363 102.905 49.2201 98.144 103.364 
47.415 95.7888 95.0456 47.8978 95.7619 94.5173 47.9945 96.4748 95.1887 
48.4245 95.8423 93.8936 48.4581 96.5476 94.5903 48.5065 97.288 95.3548 
48.9831 96.0297 93.1382 48.8704 96.7713 93.839 48.917 97.4666 94.6519 
48.9705 98.1725 95.5401 49.5677 96.3251 92.3895 49.4091 96.9973 93.074 
49.369 97.6919 93.8626 49.4598 98.3205 94.8289 49.5814 98.9268 95.8584 
50.0122 96.7706 91.6949 50.0816 97.1775 92.3748 49.9435 97.8491 93.173 
49.9805 98.4555 94.1073 50.1072 99.0155 95.1779 50.2842 99.5141 96.3031 
50.2108 97.3879 91.0395 50.6826 97.4449 91.6182 50.6229 97.9613 92.4774 
50.5311 98.5743 93.4567 50.6156 99.1053 94.4998 50.8039 99.5755 95.6093 
51.091 99.9134 96.7729 50.2083 98.1362 90.4894 50.9406 97.9705 90.9014 
51.1692 98.203 91.6909 51.1246 98.6984 92.7403 51.1607 99.1997 93.8563 
51.3297 99.6435 94.962 51.601 99.9899 96.1083 51.9848 100.174 97.2463 
50.4459 99.5044 90.0576 50.4995 100.308 90.4505 50.971 99.5129 90.66 
50.5604 101.107 91.075 51.0078 100.448 91.2373 51.364 99.6545 91.4878 
50.749 101.81 91.774 51.2156 101.306 91.9248 51.5723 100.616 92.1391 
51.7829 99.8575 92.5219 50.9422 102.511 92.6076 51.4715 102.066 92.7184 
51.9222 101.498 92.9095 52.2219 100.729 93.1668 52.2337 100.062 93.6635 
51.1314 103.171 93.5138 51.6817 102.766 93.616 52.2304 102.276 93.7921 
52.6332 101.58 93.9841 52.771 100.816 94.3271 52.5575 100.322 94.9111 
51.308 103.715 94.4006 51.8907 103.353 94.5047 52.4605 102.933 94.6629 
52.9222 102.346 94.8823 53.1886 101.593 95.1508 53.1886 100.945 95.597 
52.8826 100.548 96.158 51.4159 104.192 95.2487 52.0322 103.863 95.3755 
52.627 103.472 95.5185 53.1095 103.001 95.738 53.4998 102.333 95.9863 
53.7279 101.607 96.294 53.6565 101.034 96.7373 53.3074 100.649 97.2331 
54.3327 100.991 98.758 54.6188 101.488 98.3167 54.7737 101.373 99.5663 
54.5769 102.155 98.0119 54.8295 102.026 99.2465 55.0554 101.865 100.555 
54.2206 102.907 97.8447 54.6282 102.781 98.9848 54.9404 102.692 100.263 
55.3183 102.527 101.478 53.7668 103.578 97.6158 54.2671 103.526 98.7291 
54.6833 103.487 99.9229 55.1354 103.455 101.149 55.4136 103.227 102.301 
53.2574 104.093 97.3373 53.7798 104.141 98.4174 54.2516 104.153 99.5807 
54.7207 104.174 100.793 55.0913 104.074 102.005 55.0386 103.743 103.072 
[...]
POINT_DATA 1002
SCALARS _paraPhi double
LOOKUP_TABLE default
6.2831853072 3.1415926536 6.2831853072 3.1415926536 4.7123889804 4.7123889804 1.5707963268 1.5707963268 3.6951670125 
5.7296109483 2.5880182947 0.5535743589 6.2831853072 6.2831853072 6.2831853072 6.2831853072 3.1415926536 3.1415926536 
3.1415926536 3.1415926536 3.1415926536 6.1053039672 5.898798347 5.6768734901 5.4599499503 5.2659633393 5.1032165617 
4.9713148346 4.8656852733 4.7809517865 0.17788134 0.38438696014 0.60631181711 0.82323535693 1.0172219679 1.1799687454 
1.3118704726 1.4175000338 1.5022335207 6.1892828907 6.1070320098 6.035312792 5.9728339911 5.9183214791 5.8706119594 
5.8286879411 5.7916808611 5.7588591896 0.093902416448 0.17615329733 0.2478725152 0.31035131605 0.36486382811 0.41257334776 
0.45449736604 0.4915044461 0.52432611754 3.3194739936 3.5259796137 3.7479044707 3.9648280105 4.1588146215 4.321561399 
4.4534631262 4.5590926874 4.6438261743 2.9637113136 2.7572056934 2.5352808365 2.3183572967 2.1243706857 1.9616239082 
1.829722181 1.7240926197 1.6393591329 3.23549507 3.3177459509 3.3894651688 3.4519439696 3.5064564817 3.5541660013 
3.5960900196 3.6330970997 3.6659187711 3.0476902371 2.9654393563 2.8937201384 2.8312413375 2.7767288255 2.7290193058 
2.6870952876 2.6500882075 2.617266536 6.2831853072 6.2831853072 6.2831853072 6.2831853072 3.1415926536 3.1415926536 
3.1415926536 3.1415926536 3.1415926536 6.1053039672 5.898798347 5.6768734901 5.4599499503 5.2659633393 5.1032165617 
4.9713148346 4.8656852733 4.7809517865 0.17788134 0.38438696014 0.60631181711 0.82323535693 1.0172219679 1.1799687454 
1.3118704726 1.4175000338 1.5022335207 6.1892828907 6.1070320098 6.035312792 5.9728339911 5.9183214791 5.8706119594 
5.8286879411 5.7916808611 5.7588591896 0.093902416448 0.17615329733 0.2478725152 0.31035131605 0.36486382811 0.41257334776 
0.45449736604 0.4915044461 0.52432611754 3.3194739936 3.5259796137 3.7479044707 3.9648280105 4.1588146215 4.321561399 
4.4534631262 4.5590926874 4.6438261743 2.9637113136 2.7572056934 2.5352808365 2.3183572967 2.1243706857 1.9616239082 
1.829722181 1.7240926197 1.6393591329 3.23549507 3.3177459509 3.3894651688 3.4519439696 3.5064564817 3.5541660013 
3.5960900196 3.6330970997 3.6659187711 3.0476902371 2.9654393563 2.8937201384 2.8312413375 2.7767288255 2.7290193058 
2.6870952876 2.6500882075 2.617266536 4.7123889804 4.7123889804 4.7123889804 4.7123889804 4.7123889804 4.7123889804 
4.7123889804 4.7123889804 4.7123889804 4.6087898617 4.4991390697 4.3857031936 4.2712800401 4.1588146215 4.0509635631 
3.94975894 3.8564636551 3.7716124825 4.8159880991 4.9256388911 5.0390747672 5.1534979207 5.2659633393 5.3738143976 
5.4750190208 5.5683143056 5.6531654782 4.6087898617 4.4991390697 4.3857031936 4.2712800401 4.1588146215 4.0509635631 
3.94975894 3.8564636551 3.7716124825 4.8159880991 4.9256388911 5.0390747672 5.1534979207 5.2659633393 5.3738143976 
5.4750190208 5.5683143056 5.6531654782 1.5707963268 1.5707963268 1.5707963268 1.5707963268 1.5707963268 1.5707963268 
1.5707963268 1.5707963268 1.5707963268 1.6743954455 1.7840462375 1.8974821136 2.0119052671 2.1243706857 2.232221744 
2.3334263672 2.426721652 2.5115728246 1.4671972081 1.3575464161 1.24411054 1.1296873865 1.0172219679 0.90937090954 
0.80816628637 0.71487100155 0.63001982895 1.6743954455 1.7840462375 1.8974821136 2.0119052671 2.1243706857 2.232221744 
2.3334263672 2.426721652 2.5115728246 1.4671972081 1.3575464161 1.24411054 1.1296873865 1.0172219679 0.90937090954 
0.80816628637 0.71487100155 0.63001982895 3.6007720849 3.4966939854 3.3839471039 3.2645756454 3.1415926536 3.0186096618 
2.8992382033 2.7864913217 2.6824132222 5.8240058758 5.9280839753 6.0408308569 6.1602023154 6.2831853072 0.12298299178 
0.2423544503 0.35510133185 0.45917943135 6.0560271438 5.7885595667 5.9702140275 5.5125918794 5.6029703303 5.7885595667 
5.2659633393 5.2659633393 5.2659633393 5.2659633393 5.0674903122 5.0120975802 4.9155579264 4.7123889804 4.1588146215 
4.9155579264 4.8353719722 4.7123889804 4.5092200343 4.1588146215 3.6362183941 4.8004512023 4.7123889804 4.5894059886 
4.4126803806 4.1588146215 3.8218076305 3.4545639333 4.7123889804 4.6243267584 4.5092200343 4.3572876485 4.1588146215 
3.9121860814 3.6362183941 3.368750817 6.0174235957 5.9434319871 5.8263323547 5.8809213739 5.7674481418 5.6279784266 
5.8278025282 5.718968232 5.5891129425 5.4372443565 5.7823484065 5.678536687 5.5575666702 5.4192596322 5.2659633393 
5.743164462 5.6444075337 5.5314983644 5.4046708639 5.2659633393 5.1195510325 5.7091357773 5.6152775188 5.5096229709 
5.3926039573 5.2659633393 5.1329233157 4.9978930058 5.6793730533 5.5901633916 5.4910209005 5.3824597928 5.2659633393 
5.1440684722 5.0201624502 4.8979782167 5.5683143056 5.4750190208 5.4750190208 5.3738143976 5.3738143976 5.3738143976 
5.2659633393 5.2659633393 5.2659633393 5.2659633393 5.1534979207 5.1534979207 5.1534979207 5.1534979207 5.1534979207 
5.0390747672 5.0390747672 5.0390747672 5.0390747672 5.0390747672 5.0390747672 4.9256388911 4.9256388911 4.9256388911 
4.9256388911 4.9256388911 4.9256388911 4.9256388911 4.8159880991 4.8159880991 4.8159880991 4.8159880991 4.8159880991 
4.8159880991 4.8159880991 4.8159880991 4.6087898617 4.6087898617 4.4991390697 4.6087898617 4.4991390697 4.3857031936 
4.6087898617 4.4991390697 4.3857031936 4.2712800401 4.6087898617 4.4991390697 4.3857031936 4.2712800401 4.1588146215 
4.6087898617 4.4991390697 4.3857031936 4.2712800401 4.1588146215 4.0509635631 4.6087898617 4.4991390697 4.3857031936 
4.2712800401 4.1588146215 4.0509635631 3.94975894 4.6087898617 4.4991390697 4.3857031936 4.2712800401 4.1588146215 
4.0509635631 3.94975894 3.8564636551 4.526799744 4.4046155105 4.426884955 4.2807094886 4.2918546451 4.3052269283 
4.1588146215 4.1588146215 4.1588146215 4.1588146215 4.042318168 4.0321740035 4.0201070968 4.0055183285 3.9875336042 
3.9337570603 3.9151549899 3.8932795963 3.8672112905 3.8356650183 3.7967995342 3.8346145692 3.809500442 3.7803704271 
3.7462412737 3.7058097288 3.657329819 3.5984456061 3.7454049075 3.7156421835 3.6816134988 3.6424295543 3.5969754326 
3.5438565869 3.4813459737 3.4073543651 3.5642842451 3.4524645613 3.5233842518 3.3320300872 3.403123212 3.4773852225 
3.20576226 3.2746326772 3.348015857 3.4255060145 3.0774230472 3.1415926536 3.2112816139 3.2864685043 3.3668817272 
2.95115522 3.00855263 3.0719036933 3.1415926536 3.2178377658 3.3005964304 2.8307207459 2.8800620952 2.9351694502 
2.9967168029 3.0653475414 3.1415926536 3.225752376 2.718901062 2.7598010554 2.8058000847 2.8576792927 2.91630358 
2.9825888767 3.0574329311 3.1415926536 3.5642842451 3.5233842518 3.4524645613 3.4773852225 3.403123212 3.3320300872 
3.4255060145 3.348015857 3.2746326772 3.20576226 3.3668817272 3.2864685043 3.2112816139 3.1415926536 3.0774230472 
3.3005964304 3.2178377658 3.1415926536 3.0719036933 3.00855263 2.95115522 3.225752376 3.1415926536 3.0653475414 
2.9967168029 2.9351694502 2.8800620952 2.8307207459 3.1415926536 3.0574329311 2.9825888767 2.91630358 2.8576792927 
2.8058000847 2.7598010554 2.718901062 4.526799744 4.426884955 4.4046155105 4.3052269283 4.2918546451 4.2807094886 
4.1588146215 4.1588146215 4.1588146215 4.1588146215 3.9875336042 4.0055183285 4.0201070968 4.0321740035 4.042318168 
3.7967995342 3.8356650183 3.8672112905 3.8932795963 3.9151549899 3.9337570603 3.5984456061 3.657329819 3.7058097288 
3.7462412737 3.7803704271 3.809500442 3.8346145692 3.4073543651 3.4813459737 3.5438565869 3.5969754326 3.6424295543 
3.6816134988 3.7156421835 3.7454049075 4.7123889804 4.8004512023 4.6243267584 4.9155579264 4.7123889804 4.5092200343 
5.0674903122 4.8353719722 4.5894059886 4.3572876485 5.2659633393 5.0120975802 4.7123889804 4.4126803806 4.1588146215 
5.5125918794 5.2659633393 4.9155579264 4.5092200343 4.1588146215 3.9121860814 5.7885595667 5.6029703303 5.2659633393 
4.7123889804 4.1588146215 3.8218076305 3.6362183941 6.0560271438 5.9702140275 5.7885595667 5.2659633393 4.1588146215 
3.6362183941 3.4545639333 3.368750817 0.22715816343 0.49462574053 0.3129712797 0.77059342779 0.68021497688 0.49462574053 
1.0172219679 1.0172219679 1.0172219679 1.0172219679 1.2156949949 1.271087727 1.3676273807 1.5707963268 2.1243706857 
1.3676273807 1.447813335 1.5707963268 1.7739652728 2.1243706857 2.6469669131 1.4827341049 1.5707963268 1.6937793186 
1.8705049266 2.1243706857 2.4613776767 2.8286213739 1.5707963268 1.6588585487 1.7739652728 1.9258976586 2.1243706857 
2.3709992258 2.6469669131 2.9144344902 1.7563855631 1.8785697967 1.8563003522 2.0024758186 1.9913306621 1.9779583789 
2.1243706857 2.1243706857 2.1243706857 2.1243706857 2.2408671392 2.2510113037 2.2630782103 2.2776669786 2.295651703 
2.3494282469 2.3680303173 2.3899057108 2.4159740166 2.4475202889 2.486385773 2.448570738 2.4736848652 2.5028148801 
2.5369440334 2.5773755784 2.6258554882 2.6847397011 2.5377803997 2.5675431237 2.6015718084 2.6407557529 2.6862098746 
2.7393287203 2.8018393335 2.8758309421 1.6743954455 1.6743954455 1.7840462375 1.6743954455 1.7840462375 1.8974821136 
1.6743954455 1.7840462375 1.8974821136 2.0119052671 1.6743954455 1.7840462375 1.8974821136 2.0119052671 2.1243706857 
1.6743954455 1.7840462375 1.8974821136 2.0119052671 2.1243706857 2.232221744 1.6743954455 1.7840462375 1.8974821136 
2.0119052671 2.1243706857 2.232221744 2.3334263672 1.6743954455 1.7840462375 1.8974821136 2.0119052671 2.1243706857 
2.232221744 2.3334263672 2.426721652 1.4671972081 1.3575464161 1.4671972081 1.24411054 1.3575464161 1.4671972081 
1.1296873865 1.24411054 1.3575464161 1.4671972081 1.0172219679 1.1296873865 1.24411054 1.3575464161 1.4671972081 
0.90937090954 1.0172219679 1.1296873865 1.24411054 1.3575464161 1.4671972081 0.80816628637 0.90937090954 1.0172219679 
1.1296873865 1.24411054 1.3575464161 1.4671972081 0.71487100155 0.80816628637 0.90937090954 1.0172219679 1.1296873865 
1.24411054 1.3575464161 1.4671972081 0.60381225391 0.57404952988 0.69302191562 0.54002084522 0.66790778838 0.79216440667 
0.50083690068 0.63877777351 0.77356233629 0.90072551443 0.45538277901 0.60464862014 0.75168694275 0.89058134991 1.0172219679 
0.40226393329 0.56421707518 0.72561863695 0.87851444325 1.0172219679 1.139116835 0.33975332011 0.51573716537 0.69407236469 
0.86392567495 1.0172219679 1.1502619915 1.2630228569 0.26576171152 0.45685295248 0.6552068806 0.84594095064 1.0172219679 
1.1636342747 1.2852923014 1.3852070904 0.22715816343 0.3129712797 0.49462574053 0.49462574053 0.68021497688 0.77059342779 
1.0172219679 1.0172219679 1.0172219679 1.0172219679 2.1243706857 1.5707963268 1.3676273807 1.271087727 1.2156949949 
2.6469669131 2.1243706857 1.7739652728 1.5707963268 1.447813335 1.3676273807 2.8286213739 2.4613776767 2.1243706857 
1.8705049266 1.6937793186 1.5707963268 1.4827341049 2.9144344902 2.6469669131 2.3709992258 2.1243706857 1.9258976586 
1.7739652728 1.6588585487 1.5707963268 1.7563855631 1.8563003522 1.8785697967 1.9779583789 1.9913306621 2.0024758186 
2.1243706857 2.1243706857 2.1243706857 2.1243706857 2.295651703 2.2776669786 2.2630782103 2.2510113037 2.2408671392 
2.486385773 2.4475202889 2.4159740166 2.3899057108 2.3680303173 2.3494282469 2.6847397011 2.6258554882 2.5773755784 
2.5369440334 2.5028148801 2.4736848652 2.448570738 2.8758309421 2.8018393335 2.7393287203 2.6862098746 2.6407557529 
2.6015718084 2.5675431237 2.5377803997 5.8604937156 5.901393709 5.9723133995 5.9473927383 6.0216547488 6.0927478736 
5.9992719463 6.0767621038 6.1501452836 6.2190157008 6.0578962336 6.1383094565 6.2134963469 0 0.064169606361 
6.1241815303 6.206940195 6.2831853072 0.069688960264 0.13304002361 0.19043743361 6.1990255847 0 0.07624511221 
0.14487585072 0.20642320337 0.26153055843 0.3108719077 0 0.084159722458 0.15900377685 0.22528907359 0.28391336087 
0.3357925689 0.38179159818 0.42269159155 5.8604937156 5.9723133995 5.901393709 6.0927478736 6.0216547488 5.9473927383 
6.2190157008 6.1501452836 6.0767621038 5.9992719463 0.064169606361 0 6.2134963469 6.1383094565 6.0578962336 
0.19043743361 0.13304002361 0.069688960264 6.2831853072 6.206940195 6.1241815303 0.3108719077 0.26153055843 0.20642320337 
0.14487585072 0.07624511221 6.2831853072 6.1990255847 0.42269159155 0.38179159818 0.3357925689 0.28391336087 0.22528907359 
0.15900377685 0.084159722458 0 5.6793730533 5.7091357773 5.5901633916 5.743164462 5.6152775188 5.4910209005 
5.7823484065 5.6444075337 5.5096229709 5.3824597928 5.8278025282 5.678536687 5.5314983644 5.3926039573 5.2659633393 
5.8809213739 5.718968232 5.5575666702 5.4046708639 5.2659633393 5.1440684722 5.9434319871 5.7674481418 5.5891129425 
5.4192596322 5.2659633393 5.1329233157 5.0201624502 6.0174235957 5.8263323547 5.6279784266 5.4372443565 5.2659633393 
5.1195510325 4.9978930058 4.8979782167 1.3852070904 1.2852923014 1.2630228569 1.1636342747 1.1502619915 1.139116835 
1.0172219679 1.0172219679 1.0172219679 1.0172219679 0.84594095064 0.86392567495 0.87851444325 0.89058134991 0.90072551443 
0.6552068806 0.69407236469 0.72561863695 0.75168694275 0.77356233629 0.79216440667 0.45685295248 0.51573716537 0.56421707518 
0.60464862014 0.63877777351 0.66790778838 0.69302191562 0.26576171152 0.33975332011 0.40226393329 0.45538277901 0.50083690068 
0.54002084522 0.57404952988 0.60381225391 
