# vtk DataFile Version 4.1
vtk output
ASCII
DATASET POLYDATA
POINTS 1002 float
47.039 94.5416 95.5164 49.1302 97.1258 104.565 44.4885 102.778 91.7722 
44.7795 105.601 100.981 53.7202 100.166 98.4972 51.6522 105.054 95.2522 
39.8337 95.2975 102.171 38.1381 101.226 99.0628 53.0061 104.08 105.012 
49.9036 99.5436 89.6741 42.2995 101.365 107.137 42.1343 96.2982 93.168 
46.9063 95.339 96.0708 46.7876 96.1563 96.7611 46.7167 96.9238 97.5775 
46.6607 97.5835 98.6156 46.7725 97.9311 99.8822 47.1421 98.0066 101.134 
47.7274 97.7941 102.201 48.2993 97.4435 103.083 48.7904 97.159 103.85 
47.3167 95.3244 95.5474 47.7592 96.1215 95.6653 48.3101 96.8856 95.847 
48.9093 97.6623 96.0594 49.6187 98.3328 96.4045 50.4271 98.8588 96.8314 
51.3553 99.2272 97.3037 52.2873 99.534 97.7536 53.1124 99.8165 98.1666 
46.7108 94.3844 95.876 46.2543 94.4197 96.3314 45.643 94.5567 96.8722 
44.8529 94.8472 97.4846 43.9824 95.1373 98.2216 43.0286 95.3732 99.0107 
42.1028 95.4571 99.7968 41.273 95.4539 100.614 40.5094 95.3574 101.455 
47.3568 94.2524 95.0404 47.7657 94.1865 94.5855 48.2793 94.3934 94.058 
48.8085 94.8018 93.375 49.2653 95.3905 92.6095 49.6038 96.1142 91.8271 
49.7143 97.0183 91.1635 49.7658 97.9209 90.6095 49.8082 98.7898 90.1412 
47.0742 93.3635 95.2823 47.0253 92.0911 95.1256 46.6153 91.6198 94.895 
45.8613 92.1629 94.5023 45.0948 92.9706 94.0059 44.349 93.6418 93.5908 
43.627 94.3879 93.3875 43.0755 95.1717 93.2846 42.6024 95.7949 93.2021 
49.7086 97.4037 104.189 50.2974 97.7757 103.797 50.8 98.262 103.382 
51.2936 98.7623 102.882 51.8393 99.1998 102.299 52.3864 99.5191 101.658 
52.8983 99.6985 100.877 53.3144 99.8289 100.045 53.5873 99.9827 99.2508 
48.304 96.9337 104.472 47.3413 96.8192 104.31 46.2243 96.788 104.063 
44.9623 96.789 103.756 43.7639 96.7061 103.436 42.7719 96.4742 103.103 
41.8875 96.1674 102.816 41.08 95.844 102.583 40.4266 95.5095 102.412 
49.7064 97.4608 105.001 50.2612 97.9579 105.393 50.7472 98.7192 105.663 
51.2971 99.5175 105.872 51.9597 100.242 106.052 52.5384 101.086 106.13 
52.8726 102.087 106.005 53.0443 102.957 105.791 53.0853 103.586 105.443 
48.7781 97.2446 105.189 48.2229 97.5491 105.726 47.5582 97.9617 106.171 
46.865 98.4 106.625 46.0625 98.8267 107.082 45.1187 99.2607 107.348 
44.2529 99.7579 107.45 43.4946 100.347 107.461 42.845 100.912 107.36 
44.4998 103.152 92.4855 44.4998 103.562 93.2856 44.482 104.007 94.1337 
44.4919 104.421 95.0638 44.5099 104.809 96.0606 44.4781 105.171 97.0499 
44.4696 105.438 98.0588 44.4935 105.585 99.089 44.5981 105.629 100.096 
45.0236 103.135 91.5731 45.6024 103.528 91.4667 46.2021 103.968 91.438 
46.9357 104.346 91.593 47.8418 104.565 92.046 48.7454 104.709 92.6705 
49.5523 104.835 93.3388 50.2891 104.924 94.0268 50.9923 104.991 94.6708 
43.9616 102.654 92.4448 43.3819 102.528 93.1651 42.7087 102.386 93.9194 
41.9112 102.266 94.6847 41.0485 102.172 95.3783 40.2501 102.018 96.0741 
39.5571 101.83 96.8408 38.9685 101.655 97.5957 38.4984 101.461 98.3321 
44.816 102.644 90.9572 45.1591 102.512 90.0974 45.4847 102.379 89.1517 
45.8975 102.206 88.2958 46.5884 101.942 87.954 47.4514 101.529 88.2216 
48.2459 101.029 88.6532 48.9333 100.545 88.9948 49.4754 100.056 89.3384 
44.1618 102.308 91.5468 43.7755 101.772 91.3677 43.3276 101.208 91.2448 
42.845 100.604 91.1669 42.3797 99.8908 91.1946 41.9868 98.9821 91.3543 
41.7474 98.0786 91.6806 41.7679 97.3367 92.143 41.9227 96.7585 92.6723 
45.5052 105.753 100.475 46.3056 105.912 99.9114 47.0487 106.139 99.3038 
47.7987 106.306 98.6238 48.6861 106.324 97.7808 49.5633 106.231 97.027 
50.245 106.067 96.51 50.8022 105.73 96.091 51.2819 105.368 95.6524 
44.0307 105.394 100.91 43.2987 105.052 100.809 42.5075 104.659 100.709 
41.6544 104.279 100.605 40.8809 103.833 100.374 40.183 103.292 100.1 
39.526 102.758 99.841 38.9644 102.244 99.593 38.5139 101.733 99.3186 
45.439 105.652 101.503 46.1867 105.695 102.046 47.0303 105.709 102.633 
47.9942 105.679 103.179 49.0249 105.589 103.647 50.0289 105.395 104.065 
50.9552 105.143 104.408 51.7787 104.863 104.677 52.4737 104.501 104.883 
44.5169 105.427 101.792 44.2359 105.195 102.629 43.887 104.935 103.475 
43.5592 104.582 104.275 43.2965 104.125 105.003 42.9931 103.665 105.691 
42.7541 103.137 106.233 42.5927 102.549 106.629 42.4316 101.958 106.935 
54.0701 100.553 98.2003 54.3 101.052 97.8528 54.453 101.629 97.4251 
54.5051 102.339 96.9326 54.3625 103.123 96.4835 54.0088 103.79 96.1263 
53.5091 104.256 95.8289 52.9042 104.606 95.5831 52.2684 104.864 95.3937 
54.213 100.444 99.2783 54.7905 100.74 100.046 55.3922 100.987 100.796 
55.7779 101.321 101.651 55.8006 101.918 102.594 55.5406 102.604 103.371 
55.0271 103.13 103.891 54.3617 103.495 104.294 53.6652 103.813 104.686 
53.4985 100.093 97.5013 53.1643 100.062 96.4315 52.781 100.018 95.3263 
52.393 99.9426 94.1901 52.0732 99.7574 93.0706 51.8354 99.4865 91.9758 
51.576 99.2435 90.9753 51.1908 99.1971 90.2072 50.5984 99.3409 89.8177 
52.0874 105.289 96.0972 52.5443 105.536 97.0153 52.9898 105.7 98.0557 
53.3624 105.678 99.2772 53.6267 105.511 100.541 53.7602 105.26 101.701 
53.7329 104.961 102.729 53.5472 104.666 103.599 53.29 104.374 104.354 
51.5829 104.679 94.5126 51.4928 104.229 93.7164 51.4014 103.733 92.8125 
51.2699 103.302 91.7991 51.1251 102.843 90.8027 51.1199 102.255 89.8534 
51.1568 101.527 89.1395 50.9481 100.796 88.9836 50.4504 100.156 89.2861 
39.0293 95.4547 102.19 38.2764 95.8417 102.035 37.6848 96.351 101.786 
37.197 96.8857 101.488 36.877 97.6547 101.061 36.8473 98.6133 100.552 
37.0447 99.487 100.11 37.3411 100.169 99.748 37.7269 100.733 99.395 
39.5634 95.5199 102.916 39.3478 95.9931 103.546 39.2809 96.6736 104.113 
39.4002 97.3311 104.765 39.6899 98.0432 105.382 40.1014 98.7554 105.919 
40.5432 99.4211 106.44 41.0363 100.102 106.878 41.6215 100.785 107.126 
39.6331 95.2649 101.32 39.4773 95.1849 100.318 39.5237 95.1058 99.2224 
39.8982 95.2076 98.1112 40.3883 95.4112 97.1527 40.8665 95.5485 96.2589 
41.2782 95.6818 95.3516 41.6336 95.8793 94.5608 41.9283 96.0921 93.8539 
38.0853 101.267 100.026 38.0489 101.345 101.088 38.0975 101.468 102.211 
38.3052 101.558 103.368 38.6054 101.619 104.444 39.0392 101.673 105.377 
39.678 101.67 106.127 40.466 101.579 106.624 41.3411 101.479 106.943 
37.9998 100.858 98.3627 37.9707 100.394 97.629 38.0764 99.8481 96.8253 
38.2364 99.2152 95.9806 38.5518 98.4745 95.26 39.1698 97.8263 94.7375 
40.0102 97.3947 94.3552 40.8414 97.0538 93.9932 41.5376 96.6727 93.5796 
52.3423 104.017 105.547 51.4923 103.9 106.035 50.412 103.723 106.476 
49.2893 103.475 106.924 48.1643 103.158 107.28 46.8709 102.799 107.455 
45.5059 102.435 107.495 44.3455 102.043 107.424 43.3056 101.676 107.288 
49.1153 99.2136 89.8774 48.3357 98.7834 90.0513 47.4551 98.3396 90.2995 
46.452 97.9075 90.6138 45.5885 97.4062 90.8829 44.7333 96.9025 91.1281 
43.7646 96.4923 91.3741 42.9945 96.2437 91.7804 42.5483 96.2194 92.445 
47.2492 96.0965 96.1896 47.7346 96.8456 96.3835 47.2088 96.8831 96.9393 
48.3522 97.546 96.643 47.7547 97.5541 97.2342 47.2138 97.5833 97.8971 
49.0845 98.2171 97.0125 48.5186 98.0984 97.6728 47.9296 98.0487 98.3986 
47.2826 98.0634 99.1567 49.9091 98.7427 97.5224 49.388 98.5902 98.2502 
48.839 98.4536 99.0067 48.2367 98.3132 99.7453 47.6337 98.1864 100.467 
50.8315 99.1385 98.0091 50.295 99.0257 98.8026 49.8036 98.837 99.5929 
49.2923 98.5971 100.326 48.7527 98.3028 101.001 48.2156 98.0592 101.619 
51.8617 99.4332 98.4816 51.3391 99.3312 99.2849 50.8144 99.1811 100.11 
50.3522 98.8854 100.837 49.8402 98.5171 101.505 49.3193 98.1629 102.108 
48.8273 97.7689 102.615 52.8386 99.6842 98.9148 52.4093 99.5792 99.7239 
51.8933 99.4429 100.546 51.3834 99.1983 101.298 50.8405 98.838 101.951 
50.3277 98.4189 102.542 49.8512 97.9673 103.044 49.3352 97.5229 103.451 
47.6646 95.248 95.0108 48.1023 95.3109 94.4946 48.1978 96.0925 95.1029 
48.6772 95.4786 93.9251 48.682 96.204 94.5453 48.8081 96.9039 95.2717 
49.352 95.7679 93.1936 49.2725 96.4296 93.9008 49.336 97.0594 94.6467 
49.436 97.7407 95.4699 49.9925 96.1774 92.3455 49.9515 96.6934 93.1219 
49.941 97.312 93.9413 50.0096 97.9093 94.8054 50.1389 98.478 95.7687 
50.358 96.8223 91.5619 50.5575 97.0456 92.2829 50.5283 97.5664 93.2013 
50.609 98.1319 94.1221 50.7563 98.6347 95.1252 51 99.0138 96.2087 
50.5104 97.6598 90.8743 50.9643 97.639 91.4728 51.0688 97.9498 92.4081 
51.1263 98.4417 93.4276 51.301 98.9172 94.4302 51.5668 99.2349 95.5364 
51.9252 99.4134 96.6825 50.5622 98.5328 90.2992 51.1709 98.3873 90.7481 
51.4514 98.5469 91.5931 51.5708 98.9062 92.6757 51.7601 99.293 93.7373 
52.0589 99.5284 94.8627 52.4384 99.6533 96.0025 52.7958 99.7479 97.1182 
51.1106 100.008 89.5534 51.4402 100.833 89.6339 51.5381 99.9857 90.2822 
51.6175 101.723 90.1205 51.8226 100.939 90.6789 51.8818 100.139 91.3105 
51.7526 102.432 90.9256 52.1777 101.816 91.2326 52.3001 101.029 91.776 
52.2571 100.309 92.4118 51.9203 102.979 91.8306 52.5487 102.495 91.9272 
52.8196 101.794 92.2794 52.7743 101.05 92.9212 52.6162 100.44 93.6006 
52.0342 103.465 92.8291 52.7064 103.086 92.88 53.2007 102.482 93.0512 
53.314 101.739 93.5248 53.2032 101.059 94.2081 53.0394 100.496 94.8242 
52.1291 103.961 93.7709 52.7782 103.646 93.8852 53.366 103.174 94.0586 
53.7051 102.449 94.3509 53.7459 101.678 94.8729 53.6507 101.037 95.4696 
53.4709 100.497 95.9739 52.2154 104.453 94.6095 52.8662 104.153 94.7637 
53.4564 103.769 94.9945 53.9075 103.184 95.2694 54.1283 102.397 95.658 
54.1331 101.643 96.1777 54.019 101.03 96.6788 53.8107 100.517 97.1064 
54.5352 100.932 99.0211 54.7409 101.502 98.6608 55.0869 101.293 99.7817 
54.8562 102.206 98.1986 55.2439 101.992 99.3722 55.6171 101.671 100.494 
54.8007 103.022 97.735 55.2617 102.862 98.9265 55.6936 102.608 100.075 
55.9249 102.257 101.351 54.4887 103.77 97.3193 55.0212 103.697 98.5402 
55.5475 103.589 99.7097 55.9065 103.367 100.983 55.8752 102.986 102.296 
53.9906 104.346 96.9421 54.5199 104.372 98.1433 55.0874 104.339 99.3723 
55.545 104.234 100.635 55.6698 103.941 101.906 55.4432 103.53 103.022 
[...]
POINT_DATA 1002
SCALARS _paraPhi double
LOOKUP_TABLE default
6.2831853072 3.1415926536 6.2831853072 3.1415926536 4.7123889804 4.7123889804 1.5707963268 1.5707963268 3.6951670125 
5.7296109483 2.5880182947 0.5535743589 6.2831853072 6.2831853072 6.2831853072 6.2831853072 3.1415926536 3.1415926536 
3.1415926536 3.1415926536 3.1415926536 6.1053039672 5.898798347 5.6768734901 5.4599499503 5.2659633393 5.1032165617 
4.9713148346 4.8656852733 4.7809517865 0.17788134 0.38438696014 0.60631181711 0.82323535693 1.0172219679 1.1799687454 
1.3118704726 1.4175000338 1.5022335207 6.1892828907 6.1070320098 6.035312792 5.9728339911 5.9183214791 5.8706119594 
5.8286879411 5.7916808611 5.7588591896 0.093902416448 0.17615329733 0.2478725152 0.31035131605 0.36486382811 0.41257334776 
0.45449736604 0.4915044461 0.52432611754 3.3194739936 3.5259796137 3.7479044707 3.9648280105 4.1588146215 4.321561399 
4.4534631262 4.5590926874 4.6438261743 2.9637113136 2.7572056934 2.5352808365 2.3183572967 2.1243706857 1.9616239082 
1.829722181 1.7240926197 1.6393591329 3.23549507 3.3177459509 3.3894651688 3.4519439696 3.5064564817 3.5541660013 
3.5960900196 3.6330970997 3.6659187711 3.0476902371 2.9654393563 2.8937201384 2.8312413375 2.7767288255 2.7290193058 
2.6870952876 2.6500882075 2.617266536 6.2831853072 6.2831853072 6.2831853072 6.2831853072 3.1415926536 3.1415926536 
3.1415926536 3.1415926536 3.1415926536 6.1053039672 5.898798347 5.6768734901 5.4599499503 5.2659633393 5.1032165617 
4.9713148346 4.8656852733 4.7809517865 0.17788134 0.38438696014 0.60631181711 0.82323535693 1.0172219679 1.1799687454 
1.3118704726 1.4175000338 1.5022335207 6.1892828907 6.1070320098 6.035312792 5.9728339911 5.9183214791 5.8706119594 
5.8286879411 5.7916808611 5.7588591896 0.093902416448 0.17615329733 0.2478725152 0.31035131605 0.36486382811 0.41257334776 
0.45449736604 0.4915044461 0.52432611754 3.3194739936 3.5259796137 3.7479044707 3.9648280105 4.1588146215 4.321561399 
4.4534631262 4.5590926874 4.6438261743 2.9637113136 2.7572056934 2.5352808365 2.3183572967 2.1243706857 1.9616239082 
1.829722181 1.7240926197 1.6393591329 3.23549507 3.3177459509 3.3894651688 3.4519439696 3.5064564817 3.5541660013 
3.5960900196 3.6330970997 3.6659187711 3.0476902371 2.9654393563 2.8937201384 2.8312413375 2.7767288255 2.7290193058 
2.6870952876 2.6500882075 2.617266536 4.7123889804 4.7123889804 4.7123889804 4.7123889804 4.7123889804 4.7123889804 
4.7123889804 4.7123889804 4.7123889804 4.6087898617 4.4991390697 4.3857031936 4.2712800401 4.1588146215 4.0509635631 
3.94975894 3.8564636551 3.7716124825 4.8159880991 4.9256388911 5.0390747672 5.1534979207 5.2659633393 5.3738143976 
5.4750190208 5.5683143056 5.6531654782 4.6087898617 4.4991390697 4.3857031936 4.2712800401 4.1588146215 4.0509635631 
3.94975894 3.8564636551 3.7716124825 4.8159880991 4.9256388911 5.0390747672 5.1534979207 5.2659633393 5.3738143976 
5.4750190208 5.5683143056 5.6531654782 1.5707963268 1.5707963268 1.5707963268 1.5707963268 1.5707963268 1.5707963268 
1.5707963268 1.5707963268 1.5707963268 1.6743954455 1.7840462375 1.8974821136 2.0119052671 2.1243706857 2.232221744 
2.3334263672 2.426721652 2.5115728246 1.4671972081 1.3575464161 1.24411054 1.1296873865 1.0172219679 0.90937090954 
0.80816628637 0.71487100155 0.63001982895 1.6743954455 1.7840462375 1.8974821136 2.0119052671 2.1243706857 2.232221744 
2.3334263672 2.426721652 2.5115728246 1.4671972081 1.3575464161 1.24411054 1.1296873865 1.0172219679 0.90937090954 
0.80816628637 0.71487100155 0.63001982895 3.6007720849 3.4966939854 3.3839471039 3.2645756454 3.1415926536 3.0186096618 
2.8992382033 2.7864913217 2.6824132222 5.8240058758 5.9280839753 6.0408308569 6.1602023154 6.2831853072 0.12298299178 
0.2423544503 0.35510133185 0.45917943135 6.0560271438 5.7885595667 5.9702140275 5.5125918794 5.6029703303 5.7885595667 
5.2659633393 5.2659633393 5.2659633393 5.2659633393 5.0674903122 5.0120975802 4.9155579264 4.7123889804 4.1588146215 
4.9155579264 4.8353719722 4.7123889804 4.5092200343 4.1588146215 3.6362183941 4.8004512023 4.7123889804 4.5894059886 
4.4126803806 4.1588146215 3.8218076305 3.4545639333 4.7123889804 4.6243267584 4.5092200343 4.3572876485 4.1588146215 
3.9121860814 3.6362183941 3.368750817 6.0174235957 5.9434319871 5.8263323547 5.8809213739 5.7674481418 5.6279784266 
5.8278025282 5.718968232 5.5891129425 5.4372443565 5.7823484065 5.678536687 5.5575666702 5.4192596322 5.2659633393 
5.743164462 5.6444075337 5.5314983644 5.4046708639 5.2659633393 5.1195510325 5.7091357773 5.6152775188 5.5096229709 
5.3926039573 5.2659633393 5.1329233157 4.9978930058 5.6793730533 5.5901633916 5.4910209005 5.3824597928 5.2659633393 
5.1440684722 5.0201624502 4.8979782167 5.5683143056 5.4750190208 5.4750190208 5.3738143976 5.3738143976 5.3738143976 
5.2659633393 5.2659633393 5.2659633393 5.2659633393 5.1534979207 5.1534979207 5.1534979207 5.1534979207 5.1534979207 
5.0390747672 5.0390747672 5.0390747672 5.0390747672 5.0390747672 5.0390747672 4.9256388911 4.9256388911 4.9256388911 
4.9256388911 4.9256388911 4.9256388911 4.9256388911 4.8159880991 4.8159880991 4.8159880991 4.8159880991 4.8159880991 
4.8159880991 4.8159880991 4.8159880991 4.6087898617 4.6087898617 4.4991390697 4.6087898617 4.4991390697 4.3857031936 
4.6087898617 4.4991390697 4.3857031936 4.2712800401 4.6087898617 4.4991390697 4.3857031936 4.2712800401 4.1588146215 
4.6087898617 4.4991390697 4.3857031936 4.2712800401 4.1588146215 4.0509635631 4.6087898617 4.4991390697 4.3857031936 
4.2712800401 4.1588146215 4.0509635631 3.94975894 4.6087898617 4.4991390697 4.3857031936 4.2712800401 4.1588146215 
4.0509635631 3.94975894 3.8564636551 4.526799744 4.4046155105 4.426884955 4.2807094886 4.2918546451 4.3052269283 
4.1588146215 4.1588146215 4.1588146215 4.1588146215 4.042318168 4.0321740035 4.0201070968 4.0055183285 3.9875336042 
3.9337570603 3.9151549899 3.8932795963 3.8672112905 3.8356650183 3.7967995342 3.8346145692 3.809500442 3.7803704271 
3.7462412737 3.7058097288 3.657329819 3.5984456061 3.7454049075 3.7156421835 3.6816134988 3.6424295543 3.5969754326 
3.5438565869 3.4813459737 3.4073543651 3.5642842451 3.4524645613 3.5233842518 3.3320300872 3.403123212 3.4773852225 
3.20576226 3.2746326772 3.348015857 3.4255060145 3.0774230472 3.1415926536 3.2112816139 3.2864685043 3.3668817272 
2.95115522 3.00855263 3.0719036933 3.1415926536 3.2178377658 3.3005964304 2.8307207459 2.8800620952 2.9351694502 
2.9967168029 3.0653475414 3.1415926536 3.225752376 2.718901062 2.7598010554 2.8058000847 2.8576792927 2.91630358 
2.9825888767 3.0574329311 3.1415926536 3.5642842451 3.5233842518 3.4524645613 3.4773852225 3.403123212 3.3320300872 
3.4255060145 3.348015857 3.2746326772 3.20576226 3.3668817272 3.2864685043 3.2112816139 3.1415926536 3.0774230472 
3.3005964304 3.2178377658 3.1415926536 3.0719036933 3.00855263 2.95115522 3.225752376 3.1415926536 3.0653475414 
2.9967168029 2.9351694502 2.8800620952 2.8307207459 3.1415926536 3.0574329311 2.9825888767 2.91630358 2.8576792927 
2.8058000847 2.7598010554 2.718901062 4.526799744 4.426884955 4.4046155105 4.3052269283 4.2918546451 4.2807094886 
4.1588146215 4.1588146215 4.1588146215 4.1588146215 3.9875336042 4.0055183285 4.0201070968 4.0321740035 4.042318168 
3.7967995342 3.8356650183 3.8672112905 3.8932795963 3.9151549899 3.9337570603 3.5984456061 3.657329819 3.7058097288 
3.7462412737 3.7803704271 3.809500442 3.8346145692 3.4073543651 3.4813459737 3.5438565869 3.5969754326 3.6424295543 
3.6816134988 3.7156421835 3.7454049075 4.7123889804 4.8004512023 4.6243267584 4.9155579264 4.7123889804 4.5092200343 
5.0674903122 4.8353719722 4.5894059886 4.3572876485 5.2659633393 5.0120975802 4.7123889804 4.4126803806 4.1588146215 
5.5125918794 5.2659633393 4.9155579264 4.5092200343 4.1588146215 3.9121860814 5.7885595667 5.6029703303 5.2659633393 
4.7123889804 4.1588146215 3.8218076305 3.6362183941 6.0560271438 5.9702140275 5.7885595667 5.2659633393 4.1588146215 
3.6362183941 3.4545639333 3.368750817 0.22715816343 0.49462574053 0.3129712797 0.77059342779 0.68021497688 0.49462574053 
1.0172219679 1.0172219679 1.0172219679 1.0172219679 1.2156949949 1.271087727 1.3676273807 1.5707963268 2.1243706857 
1.3676273807 1.447813335 1.5707963268 1.7739652728 2.1243706857 2.6469669131 1.4827341049 1.5707963268 1.6937793186 
1.8705049266 2.1243706857 2.4613776767 2.8286213739 1.5707963268 1.6588585487 1.7739652728 1.9258976586 2.1243706857 
2.3709992258 2.6469669131 2.9144344902 1.7563855631 1.8785697967 1.8563003522 2.0024758186 1.9913306621 1.9779583789 
2.1243706857 2.1243706857 2.1243706857 2.1243706857 2.2408671392 2.2510113037 2.2630782103 2.2776669786 2.295651703 
2.3494282469 2.3680303173 2.3899057108 2.4159740166 2.4475202889 2.486385773 2.448570738 2.4736848652 2.5028148801 
2.5369440334 2.5773755784 2.6258554882 2.6847397011 2.5377803997 2.5675431237 2.6015718084 2.6407557529 2.6862098746 
2.7393287203 2.8018393335 2.8758309421 1.6743954455 1.6743954455 1.7840462375 1.6743954455 1.7840462375 1.8974821136 
1.6743954455 1.7840462375 1.8974821136 2.0119052671 1.6743954455 1.7840462375 1.8974821136 2.0119052671 2.1243706857 
1.6743954455 1.7840462375 1.8974821136 2.0119052671 2.1243706857 2.232221744 1.6743954455 1.7840462375 1.8974821136 
2.0119052671 2.1243706857 2.232221744 2.3334263672 1.6743954455 1.7840462375 1.8974821136 2.0119052671 2.1243706857 
2.232221744 2.3334263672 2.426721652 1.4671972081 1.3575464161 1.4671972081 1.24411054 1.3575464161 1.4671972081 
1.1296873865 1.24411054 1.3575464161 1.4671972081 1.0172219679 1.1296873865 1.24411054 1.3575464161 1.4671972081 
0.90937090954 1.0172219679 1.1296873865 1.24411054 1.3575464161 1.4671972081 0.80816628637 0.90937090954 1.0172219679 
1.1296873865 1.24411054 1.3575464161 1.4671972081 0.71487100155 0.80816628637 0.90937090954 1.0172219679 1.1296873865 
1.24411054 1.3575464161 1.4671972081 0.60381225391 0.57404952988 0.69302191562 0.54002084522 0.66790778838 0.79216440667 
0.50083690068 0.63877777351 0.77356233629 0.90072551443 0.45538277901 0.60464862014 0.75168694275 0.89058134991 1.0172219679 
0.40226393329 0.56421707518 0.72561863695 0.87851444325 1.0172219679 1.139116835 0.33975332011 0.51573716537 0.69407236469 
0.86392567495 1.0172219679 1.1502619915 1.2630228569 0.26576171152 0.45685295248 0.6552068806 0.84594095064 1.0172219679 
1.1636342747 1.2852923014 1.3852070904 0.22715816343 0.3129712797 0.49462574053 0.49462574053 0.68021497688 0.77059342779 
1.0172219679 1.0172219679 1.0172219679 1.0172219679 2.1243706857 1.5707963268 1.3676273807 1.271087727 1.2156949949 
2.6469669131 2.1243706857 1.7739652728 1.5707963268 1.447813335 1.3676273807 2.8286213739 2.4613776767 2.1243706857 
1.8705049266 1.6937793186 1.5707963268 1.4827341049 2.9144344902 2.6469669131 2.3709992258 2.1243706857 1.9258976586 
1.7739652728 1.6588585487 1.5707963268 1.7563855631 1.8563003522 1.8785697967 1.9779583789 1.9913306621 2.0024758186 
2.1243706857 2.1243706857 2.1243706857 2.1243706857 2.295651703 2.2776669786 2.2630782103 2.2510113037 2.2408671392 
2.486385773 2.4475202889 2.4159740166 2.3899057108 2.3680303173 2.3494282469 2.6847397011 2.6258554882 2.5773755784 
2.5369440334 2.5028148801 2.4736848652 2.448570738 2.8758309421 2.8018393335 2.7393287203 2.6862098746 2.6407557529 
2.6015718084 2.5675431237 2.5377803997 5.8604937156 5.901393709 5.9723133995 5.9473927383 6.0216547488 6.0927478736 
5.9992719463 6.0767621038 6.1501452836 6.2190157008 6.0578962336 6.1383094565 6.2134963469 0 0.064169606361 
6.1241815303 6.206940195 6.2831853072 0.069688960264 0.13304002361 0.19043743361 6.1990255847 0 0.07624511221 
0.14487585072 0.20642320337 0.26153055843 0.3108719077 0 0.084159722458 0.15900377685 0.22528907359 0.28391336087 
0.3357925689 0.38179159818 0.42269159155 5.8604937156 5.9723133995 5.901393709 6.0927478736 6.0216547488 5.9473927383 
6.2190157008 6.1501452836 6.0767621038 5.9992719463 0.064169606361 0 6.2134963469 6.1383094565 6.0578962336 
0.19043743361 0.13304002361 0.069688960264 6.2831853072 6.206940195 6.1241815303 0.3108719077 0.26153055843 0.20642320337 
0.14487585072 0.07624511221 6.2831853072 6.1990255847 0.42269159155 0.38179159818 0.3357925689 0.28391336087 0.22528907359 
0.15900377685 0.084159722458 0 5.6793730533 5.7091357773 5.5901633916 5.743164462 5.6152775188 5.4910209005 
5.7823484065 5.6444075337 5.5096229709 5.3824597928 5.8278025282 5.678536687 5.5314983644 5.3926039573 5.2659633393 
5.8809213739 5.718968232 5.5575666702 5.4046708639 5.2659633393 5.1440684722 5.9434319871 5.7674481418 5.5891129425 
5.4192596322 5.2659633393 5.1329233157 5.0201624502 6.0174235957 5.8263323547 5.6279784266 5.4372443565 5.2659633393 
5.1195510325 4.9978930058 4.8979782167 1.3852070904 1.2852923014 1.2630228569 1.1636342747 1.1502619915 1.139116835 
1.0172219679 1.0172219679 1.0172219679 1.0172219679 0.84594095064 0.86392567495 0.87851444325 0.89058134991 0.90072551443 
0.6552068806 0.69407236469 0.72561863695 0.75168694275 0.77356233629 0.79216440667 0.45685295248 0.51573716537 0.56421707518 
0.60464862014 0.63877777351 0.66790778838 0.69302191562 0.26576171152 0.33975332011 0.40226393329 0.45538277901 0.50083690068 
0.54002084522 0.57404952988 0.60381225391 
