# vtk DataFile Version 4.1
vtk output
ASCII
DATASET POLYDATA
POINTS 1002 float
46.5462 96.3512 95.1212 51.1223 98.1751 103.234 43.7515 102.036 95.8318 
45.4557 107.787 102.935 50.0892 101.813 97.8074 48.7124 104.808 96.949 
44.1344 96.3857 101.829 40.5449 101.818 102.006 53.0655 105.882 104.573 
47.8478 100 89.2464 46.71 102.323 107.543 42.0888 95.7052 94.0885 
46.4759 96.8391 95.8456 46.399 97.4149 96.6778 46.3734 98.0079 97.5553 
46.5213 98.4821 98.6002 46.9907 98.6726 99.7793 47.7953 98.531 100.732 
48.7966 98.2265 101.326 49.8181 97.9817 101.844 50.663 97.9232 102.518 
46.9144 96.756 95.1381 47.3448 97.1842 95.1948 47.787 97.6844 95.2792 
48.2242 98.2507 95.4027 48.6403 98.8384 95.6201 48.9945 99.4264 95.9479 
49.318 100.005 96.3727 49.6409 100.587 96.8458 49.8908 101.211 97.3379 
46.1906 96.2458 95.6313 45.8021 96.2186 96.2379 45.2585 96.3156 96.8346 
44.5984 96.4217 97.4716 44.2385 96.3225 98.2786 44.4568 95.9524 99.1941 
44.7766 95.5548 100.047 44.6895 95.5108 100.77 44.3558 95.8722 101.362 
46.885 96.12 94.5456 47.3589 95.8737 93.9861 47.8549 95.7381 93.2618 
48.2152 95.8599 92.4027 48.3841 96.3597 91.6708 48.3257 97.1805 91.1218 
48.139 98.0235 90.5773 48.0322 98.7897 90.0802 47.9938 99.4627 89.665 
46.4217 95.7572 94.806 46.3432 94.9992 94.5187 46.2404 94.1664 94.2241 
45.8758 93.5563 93.9436 45.0433 93.3994 93.676 44.0301 93.6035 93.3863 
43.2981 94.0251 93.2508 42.8065 94.5882 93.3966 42.3767 95.1735 93.702 
51.3639 98.3413 102.679 51.3878 98.7976 102.173 51.2321 99.3907 101.848 
50.9468 100.017 101.565 50.595 100.676 101.221 50.3071 101.197 100.767 
50.1581 101.503 100.069 50.088 101.702 99.2549 50.0715 101.801 98.5051 
50.4961 97.9386 103.292 49.7369 97.668 103.275 49.0015 97.2605 103.208 
48.3264 96.8397 103.066 47.6662 96.4498 102.901 46.9452 96.0507 102.937 
46.1346 95.959 103.037 45.3397 96.1985 102.802 44.6715 96.3966 102.282 
51.5721 98.6642 103.574 52.009 99.2968 103.962 52.4723 99.993 104.307 
52.8517 100.763 104.524 53.1887 101.612 104.732 53.5002 102.521 105.003 
53.5564 103.477 105.085 53.3901 104.419 104.905 53.2367 105.24 104.717 
50.9671 98.5047 103.876 50.6923 98.9105 104.417 50.4353 99.1822 105.08 
50.1737 99.393 105.888 49.6996 99.8714 106.348 49.1009 100.512 106.559 
48.5489 101.058 106.882 47.9554 101.49 107.261 47.3064 101.896 107.505 
43.7836 102.503 96.6272 43.833 103.043 97.471 43.8247 103.769 98.2101 
43.824 104.666 98.8489 43.8894 105.587 99.4411 44.024 106.385 100.032 
44.2826 107.002 100.709 44.6591 107.458 101.501 45.0605 107.721 102.272 
44.109 102.329 95.7009 44.5368 102.611 95.6335 45.0145 102.918 95.5723 
45.4851 103.277 95.513 45.8921 103.691 95.5104 46.3627 104.087 95.6203 
47.0067 104.317 95.9028 47.6334 104.44 96.302 48.1624 104.618 96.6546 
43.4151 102.012 96.5157 43.0557 102.007 97.254 42.6545 102.057 97.9522 
42.1476 102.115 98.6548 41.5313 102.207 99.3118 40.923 102.383 99.8073 
40.4601 102.407 100.315 40.2522 102.216 100.94 40.3114 102.001 101.54 
43.9831 101.757 95.0145 44.251 101.479 94.1358 44.538 101.206 93.1305 
44.8539 100.943 92.1242 45.1836 100.765 91.1993 45.4928 100.666 90.2629 
45.8549 100.535 89.4918 46.4373 100.357 89.1022 47.1849 100.172 89.0736 
43.5419 101.559 95.5082 43.2725 101.076 95.171 42.9585 100.558 94.8222 
42.6735 99.9469 94.503 42.4059 99.286 94.2381 42.1979 98.5849 94.0711 
42.1166 97.7884 94.0107 42.065 96.9578 93.9695 42.0136 96.2432 93.9642 
45.8007 107.996 102.38 46.1965 108.155 101.706 46.6167 108.241 100.987 
47.1243 108.123 100.317 47.6751 107.698 99.7505 48.0569 107.043 99.2855 
48.2758 106.323 98.8305 48.4593 105.667 98.2716 48.6009 105.172 97.6185 
44.919 107.455 102.992 44.3459 107.015 103.038 43.6873 106.558 103.102 
42.9773 106.073 103.074 42.3297 105.505 102.963 41.7846 104.807 102.852 
41.2984 104.006 102.709 40.8974 103.244 102.532 40.6708 102.533 102.303 
46.1523 107.851 103.211 46.9998 107.885 103.484 47.8693 108.04 103.855 
48.6538 108.227 104.331 49.5003 108.096 104.691 50.4803 107.681 104.809 
51.3367 107.282 104.825 52.004 106.872 104.814 52.5839 106.363 104.721 
45.575 107.608 103.642 45.7157 107.403 104.393 45.8514 107.08 105.061 
45.9968 106.618 105.642 46.1038 106.086 106.262 46.1355 105.476 106.818 
46.2163 104.754 107.153 46.3877 103.933 107.404 46.5618 103.078 107.558 
50.2335 102.164 97.6032 50.4137 102.52 97.2865 50.6355 102.862 96.9029 
50.8066 103.239 96.5758 50.7581 103.711 96.3659 50.4459 104.108 96.3525 
49.9922 104.287 96.5482 49.5449 104.416 96.7112 49.1242 104.635 96.7986 
50.3979 102.341 98.6553 50.9157 102.801 99.4472 51.6292 103.15 100.099 
52.4005 103.446 100.638 53.0998 103.827 101.194 53.6053 104.382 101.881 
53.8521 104.997 102.693 53.8126 105.467 103.482 53.5148 105.726 104.103 
50.0162 101.421 96.7159 49.9612 101.008 95.3694 49.9216 100.631 93.8437 
49.9188 100.412 92.3344 50.0436 100.388 90.8804 50.2333 100.395 89.7118 
50.0459 100.368 89.1934 49.3546 100.311 89.1553 48.5378 100.184 89.2049 
49.2963 105.188 97.6724 50.0022 105.623 98.3687 50.6714 106.087 98.999 
51.1584 106.397 99.7 51.5458 106.511 100.627 51.96 106.618 101.578 
52.4368 106.674 102.446 52.8643 106.583 103.301 53.0651 106.306 104.045 
48.4826 104.371 95.9669 48.3089 103.935 94.735 48.1834 103.542 93.3516 
48.1484 103.16 91.946 48.1957 102.772 90.5675 48.2282 102.453 89.2799 
48.1953 101.968 88.5319 48.1011 101.274 88.4512 47.9891 100.594 88.7916 
43.8191 96.8043 101.765 43.5526 97.3313 101.708 43.1256 97.8452 101.787 
42.5947 98.3632 101.861 42.1319 98.9403 101.863 41.6958 99.5329 101.902 
41.2373 100.073 101.979 40.8938 100.627 102.016 40.6838 101.235 102.027 
44.3678 96.8918 102.502 44.6263 97.3449 103.224 44.8269 97.8257 103.933 
45.0227 98.3781 104.676 45.2924 98.9743 105.437 45.5515 99.539 106.088 
45.8433 100.22 106.564 46.1585 100.992 106.914 46.446 101.687 107.24 
43.7096 95.9865 101.244 43.277 95.5346 100.75 42.841 95.1284 100.265 
42.4155 94.8354 99.6938 42.0962 94.7959 98.8222 42.0519 94.9745 97.7153 
42.1748 95.1827 96.6712 42.2196 95.3371 95.7543 42.1487 95.4894 94.8716 
40.9334 102.045 102.583 41.4449 102.204 103.158 42.0778 102.294 103.78 
42.7268 102.349 104.442 43.3236 102.403 105.133 43.9208 102.469 105.845 
44.6199 102.497 106.437 45.3653 102.455 106.876 46.0422 102.387 107.245 
40.2181 101.203 101.386 39.8741 100.538 100.71 39.7372 99.8343 100.112 
39.9701 99.0911 99.4898 40.41 98.3542 98.6932 40.8672 97.6935 97.8174 
41.2886 97.0932 96.9328 41.639 96.537 95.9855 41.8877 96.0717 94.9986 
52.7264 105.654 105.082 52.3768 105.441 105.636 51.9484 105.275 106.252 
51.4064 105.029 106.759 50.7109 104.626 107.09 49.8718 104.133 107.339 
49.0311 103.655 107.575 48.2098 103.204 107.76 47.3976 102.745 107.757 
47.2408 99.48 89.5878 46.4804 98.9027 89.9564 45.6789 98.314 90.2888 
44.9096 97.7193 90.6105 44.1057 97.1472 90.9632 43.3268 96.6017 91.3069 
42.7259 96.0941 91.7235 42.3683 95.7568 92.3414 42.1915 95.6527 93.1464 
46.8735 97.2711 95.8891 47.3099 97.7354 95.9865 46.8312 97.8687 96.7483 
47.7381 98.2656 96.131 47.2887 98.331 96.8864 46.8625 98.4301 97.6998 
48.1954 98.8465 96.3613 47.7648 98.8609 97.1688 47.3975 98.8901 97.9872 
47.1021 98.8624 98.917 48.6327 99.4357 96.6825 48.2481 99.4506 97.546 
47.9456 99.4304 98.4199 47.7254 99.3231 99.3247 47.6527 99.0329 100.202 
49.0156 100.03 97.1117 48.6907 100.062 97.9654 48.4613 100.001 98.8866 
48.3415 99.812 99.7554 48.3473 99.4526 100.581 48.5285 98.8846 101.106 
49.3976 100.625 97.6143 49.1499 100.652 98.4427 48.9997 100.557 99.3417 
48.9745 100.275 100.153 49.0688 99.8445 100.871 49.3167 99.2624 101.381 
49.6294 98.5669 101.607 49.7632 101.218 98.088 49.6399 101.184 98.8985 
49.5911 101.055 99.7608 49.6616 100.741 100.494 49.8441 100.228 101.069 
50.1267 99.6292 101.519 50.4563 98.9601 101.782 50.6726 98.3209 102.061 
47.2894 96.5856 94.5195 47.7523 96.4618 93.8548 47.7477 97.0783 94.5225 
48.2603 96.4123 93.0115 48.2111 97.0487 93.7559 48.2275 97.6248 94.5497 
48.742 96.5366 92.0856 48.7267 97.075 92.8407 48.6832 97.622 93.7107 
48.6635 98.2178 94.6473 49.0506 97.0156 91.2947 49.2714 97.253 91.8864 
49.1705 97.72 92.7662 49.0623 98.2755 93.7576 49.0062 98.8819 94.8535 
49.0195 97.8145 90.608 49.6001 97.7576 90.9483 49.6354 98.0318 91.754 
49.4418 98.507 92.7777 49.3097 99.0598 93.9091 49.292 99.5469 95.1649 
48.8067 98.7466 90.0461 49.5716 98.6104 90.1431 49.8994 98.6534 90.7254 
49.7725 98.9379 91.7613 49.5919 99.3495 92.91 49.5492 99.754 94.1968 
49.5992 100.143 95.5869 48.6871 99.5714 89.6292 49.4673 99.5534 89.5881 
50.013 99.5152 89.8307 50.0389 99.5879 90.6908 49.8486 99.7536 91.9292 
49.7729 100.006 93.2297 49.8101 100.345 94.6916 49.8676 100.755 96.1197 
48.8145 100.855 88.6963 48.9646 101.597 88.2842 49.7109 101.05 88.6627 
48.9158 102.236 88.484 49.7039 101.759 88.5001 50.1995 101.157 88.9693 
48.7719 102.592 89.6906 49.4205 102.238 89.2779 49.9466 101.801 89.4049 
50.1341 101.167 89.9359 48.6765 102.921 91.3278 49.1776 102.621 90.8552 
49.6451 102.28 90.6845 49.9272 101.806 90.8457 49.9763 101.084 91.4861 
48.6463 103.288 92.8963 49.1223 103.05 92.5096 49.5805 102.771 92.2657 
49.8998 102.374 92.2547 49.985 101.789 92.5947 49.9601 101.128 93.2448 
48.7009 103.671 94.3873 49.1114 103.449 94.0638 49.5878 103.243 93.805 
50.0014 102.911 93.7299 50.1279 102.443 93.9265 50.0363 101.936 94.3969 
49.975 101.444 94.93 48.8648 104.138 95.7294 49.2423 103.899 95.5322 
49.6655 103.718 95.3098 50.1329 103.455 95.1595 50.3984 103.032 95.2249 
50.3344 102.604 95.5261 50.1572 102.227 95.98 50.0629 101.824 96.4048 
50.632 102.724 98.483 50.9401 103.099 98.1738 51.2332 103.243 99.259 
51.2009 103.496 97.8162 51.5611 103.695 98.9348 51.9549 103.681 99.8493 
51.3488 103.973 97.4374 51.8378 104.162 98.4691 52.2645 104.206 99.4511 
52.7075 104.073 100.354 51.3159 104.527 97.1179 52.0562 104.755 97.8855 
52.5262 104.777 98.8909 52.8893 104.714 100.002 53.266 104.579 101.014 
50.9653 104.857 97.1703 51.9771 105.347 97.5851 52.6187 105.486 98.3808 
52.8776 105.403 99.6345 53.1535 105.304 100.864 53.5505 105.203 101.869 
[...]
POINT_DATA 1002
SCALARS _paraPhi double
LOOKUP_TABLE default
6.2831853072 3.1415926536 6.2831853072 3.1415926536 4.7123889804 4.7123889804 1.5707963268 1.5707963268 3.6951670125 
5.7296109483 2.5880182947 0.5535743589 6.2831853072 6.2831853072 6.2831853072 6.2831853072 3.1415926536 3.1415926536 
3.1415926536 3.1415926536 3.1415926536 6.1053039672 5.898798347 5.6768734901 5.4599499503 5.2659633393 5.1032165617 
4.9713148346 4.8656852733 4.7809517865 0.17788134 0.38438696014 0.60631181711 0.82323535693 1.0172219679 1.1799687454 
1.3118704726 1.4175000338 1.5022335207 6.1892828907 6.1070320098 6.035312792 5.9728339911 5.9183214791 5.8706119594 
5.8286879411 5.7916808611 5.7588591896 0.093902416448 0.17615329733 0.2478725152 0.31035131605 0.36486382811 0.41257334776 
0.45449736604 0.4915044461 0.52432611754 3.3194739936 3.5259796137 3.7479044707 3.9648280105 4.1588146215 4.321561399 
4.4534631262 4.5590926874 4.6438261743 2.9637113136 2.7572056934 2.5352808365 2.3183572967 2.1243706857 1.9616239082 
1.829722181 1.7240926197 1.6393591329 3.23549507 3.3177459509 3.3894651688 3.4519439696 3.5064564817 3.5541660013 
3.5960900196 3.6330970997 3.6659187711 3.0476902371 2.9654393563 2.8937201384 2.8312413375 2.7767288255 2.7290193058 
2.6870952876 2.6500882075 2.617266536 6.2831853072 6.2831853072 6.2831853072 6.2831853072 3.1415926536 3.1415926536 
3.1415926536 3.1415926536 3.1415926536 6.1053039672 5.898798347 5.6768734901 5.4599499503 5.2659633393 5.1032165617 
4.9713148346 4.8656852733 4.7809517865 0.17788134 0.38438696014 0.60631181711 0.82323535693 1.0172219679 1.1799687454 
1.3118704726 1.4175000338 1.5022335207 6.1892828907 6.1070320098 6.035312792 5.9728339911 5.9183214791 5.8706119594 
5.8286879411 5.7916808611 5.7588591896 0.093902416448 0.17615329733 0.2478725152 0.31035131605 0.36486382811 0.41257334776 
0.45449736604 0.4915044461 0.52432611754 3.3194739936 3.5259796137 3.7479044707 3.9648280105 4.1588146215 4.321561399 
4.4534631262 4.5590926874 4.6438261743 2.9637113136 2.7572056934 2.5352808365 2.3183572967 2.1243706857 1.9616239082 
1.829722181 1.7240926197 1.6393591329 3.23549507 3.3177459509 3.3894651688 3.4519439696 3.5064564817 3.5541660013 
3.5960900196 3.6330970997 3.6659187711 3.0476902371 2.9654393563 2.8937201384 2.8312413375 2.7767288255 2.7290193058 
2.6870952876 2.6500882075 2.617266536 4.7123889804 4.7123889804 4.7123889804 4.7123889804 4.7123889804 4.7123889804 
4.7123889804 4.7123889804 4.7123889804 4.6087898617 4.4991390697 4.3857031936 4.2712800401 4.1588146215 4.0509635631 
3.94975894 3.8564636551 3.7716124825 4.8159880991 4.9256388911 5.0390747672 5.1534979207 5.2659633393 5.3738143976 
5.4750190208 5.5683143056 5.6531654782 4.6087898617 4.4991390697 4.3857031936 4.2712800401 4.1588146215 4.0509635631 
3.94975894 3.8564636551 3.7716124825 4.8159880991 4.9256388911 5.0390747672 5.1534979207 5.2659633393 5.3738143976 
5.4750190208 5.5683143056 5.6531654782 1.5707963268 1.5707963268 1.5707963268 1.5707963268 1.5707963268 1.5707963268 
1.5707963268 1.5707963268 1.5707963268 1.6743954455 1.7840462375 1.8974821136 2.0119052671 2.1243706857 2.232221744 
2.3334263672 2.426721652 2.5115728246 1.4671972081 1.3575464161 1.24411054 1.1296873865 1.0172219679 0.90937090954 
0.80816628637 0.71487100155 0.63001982895 1.6743954455 1.7840462375 1.8974821136 2.0119052671 2.1243706857 2.232221744 
2.3334263672 2.426721652 2.5115728246 1.4671972081 1.3575464161 1.24411054 1.1296873865 1.0172219679 0.90937090954 
0.80816628637 0.71487100155 0.63001982895 3.6007720849 3.4966939854 3.3839471039 3.2645756454 3.1415926536 3.0186096618 
2.8992382033 2.7864913217 2.6824132222 5.8240058758 5.9280839753 6.0408308569 6.1602023154 6.2831853072 0.12298299178 
0.2423544503 0.35510133185 0.45917943135 6.0560271438 5.7885595667 5.9702140275 5.5125918794 5.6029703303 5.7885595667 
5.2659633393 5.2659633393 5.2659633393 5.2659633393 5.0674903122 5.0120975802 4.9155579264 4.7123889804 4.1588146215 
4.9155579264 4.8353719722 4.7123889804 4.5092200343 4.1588146215 3.6362183941 4.8004512023 4.7123889804 4.5894059886 
4.4126803806 4.1588146215 3.8218076305 3.4545639333 4.7123889804 4.6243267584 4.5092200343 4.3572876485 4.1588146215 
3.9121860814 3.6362183941 3.368750817 6.0174235957 5.9434319871 5.8263323547 5.8809213739 5.7674481418 5.6279784266 
5.8278025282 5.718968232 5.5891129425 5.4372443565 5.7823484065 5.678536687 5.5575666702 5.4192596322 5.2659633393 
5.743164462 5.6444075337 5.5314983644 5.4046708639 5.2659633393 5.1195510325 5.7091357773 5.6152775188 5.5096229709 
5.3926039573 5.2659633393 5.1329233157 4.9978930058 5.6793730533 5.5901633916 5.4910209005 5.3824597928 5.2659633393 
5.1440684722 5.0201624502 4.8979782167 5.5683143056 5.4750190208 5.4750190208 5.3738143976 5.3738143976 5.3738143976 
5.2659633393 5.2659633393 5.2659633393 5.2659633393 5.1534979207 5.1534979207 5.1534979207 5.1534979207 5.1534979207 
5.0390747672 5.0390747672 5.0390747672 5.0390747672 5.0390747672 5.0390747672 4.9256388911 4.9256388911 4.9256388911 
4.9256388911 4.9256388911 4.9256388911 4.9256388911 4.8159880991 4.8159880991 4.8159880991 4.8159880991 4.8159880991 
4.8159880991 4.8159880991 4.8159880991 4.6087898617 4.6087898617 4.4991390697 4.6087898617 4.4991390697 4.3857031936 
4.6087898617 4.4991390697 4.3857031936 4.2712800401 4.6087898617 4.4991390697 4.3857031936 4.2712800401 4.1588146215 
4.6087898617 4.4991390697 4.3857031936 4.2712800401 4.1588146215 4.0509635631 4.6087898617 4.4991390697 4.3857031936 
4.2712800401 4.1588146215 4.0509635631 3.94975894 4.6087898617 4.4991390697 4.3857031936 4.2712800401 4.1588146215 
4.0509635631 3.94975894 3.8564636551 4.526799744 4.4046155105 4.426884955 4.2807094886 4.2918546451 4.3052269283 
4.1588146215 4.1588146215 4.1588146215 4.1588146215 4.042318168 4.0321740035 4.0201070968 4.0055183285 3.9875336042 
3.9337570603 3.9151549899 3.8932795963 3.8672112905 3.8356650183 3.7967995342 3.8346145692 3.809500442 3.7803704271 
3.7462412737 3.7058097288 3.657329819 3.5984456061 3.7454049075 3.7156421835 3.6816134988 3.6424295543 3.5969754326 
3.5438565869 3.4813459737 3.4073543651 3.5642842451 3.4524645613 3.5233842518 3.3320300872 3.403123212 3.4773852225 
3.20576226 3.2746326772 3.348015857 3.4255060145 3.0774230472 3.1415926536 3.2112816139 3.2864685043 3.3668817272 
2.95115522 3.00855263 3.0719036933 3.1415926536 3.2178377658 3.3005964304 2.8307207459 2.8800620952 2.9351694502 
2.9967168029 3.0653475414 3.1415926536 3.225752376 2.718901062 2.7598010554 2.8058000847 2.8576792927 2.91630358 
2.9825888767 3.0574329311 3.1415926536 3.5642842451 3.5233842518 3.4524645613 3.4773852225 3.403123212 3.3320300872 
3.4255060145 3.348015857 3.2746326772 3.20576226 3.3668817272 3.2864685043 3.2112816139 3.1415926536 3.0774230472 
3.3005964304 3.2178377658 3.1415926536 3.0719036933 3.00855263 2.95115522 3.225752376 3.1415926536 3.0653475414 
2.9967168029 2.9351694502 2.8800620952 2.8307207459 3.1415926536 3.0574329311 2.9825888767 2.91630358 2.8576792927 
2.8058000847 2.7598010554 2.718901062 4.526799744 4.426884955 4.4046155105 4.3052269283 4.2918546451 4.2807094886 
4.1588146215 4.1588146215 4.1588146215 4.1588146215 3.9875336042 4.0055183285 4.0201070968 4.0321740035 4.042318168 
3.7967995342 3.8356650183 3.8672112905 3.8932795963 3.9151549899 3.9337570603 3.5984456061 3.657329819 3.7058097288 
3.7462412737 3.7803704271 3.809500442 3.8346145692 3.4073543651 3.4813459737 3.5438565869 3.5969754326 3.6424295543 
3.6816134988 3.7156421835 3.7454049075 4.7123889804 4.8004512023 4.6243267584 4.9155579264 4.7123889804 4.5092200343 
5.0674903122 4.8353719722 4.5894059886 4.3572876485 5.2659633393 5.0120975802 4.7123889804 4.4126803806 4.1588146215 
5.5125918794 5.2659633393 4.9155579264 4.5092200343 4.1588146215 3.9121860814 5.7885595667 5.6029703303 5.2659633393 
4.7123889804 4.1588146215 3.8218076305 3.6362183941 6.0560271438 5.9702140275 5.7885595667 5.2659633393 4.1588146215 
3.6362183941 3.4545639333 3.368750817 0.22715816343 0.49462574053 0.3129712797 0.77059342779 0.68021497688 0.49462574053 
1.0172219679 1.0172219679 1.0172219679 1.0172219679 1.2156949949 1.271087727 1.3676273807 1.5707963268 2.1243706857 
1.3676273807 1.447813335 1.5707963268 1.7739652728 2.1243706857 2.6469669131 1.4827341049 1.5707963268 1.6937793186 
1.8705049266 2.1243706857 2.4613776767 2.8286213739 1.5707963268 1.6588585487 1.7739652728 1.9258976586 2.1243706857 
2.3709992258 2.6469669131 2.9144344902 1.7563855631 1.8785697967 1.8563003522 2.0024758186 1.9913306621 1.9779583789 
2.1243706857 2.1243706857 2.1243706857 2.1243706857 2.2408671392 2.2510113037 2.2630782103 2.2776669786 2.295651703 
2.3494282469 2.3680303173 2.3899057108 2.4159740166 2.4475202889 2.486385773 2.448570738 2.4736848652 2.5028148801 
2.5369440334 2.5773755784 2.6258554882 2.6847397011 2.5377803997 2.5675431237 2.6015718084 2.6407557529 2.6862098746 
2.7393287203 2.8018393335 2.8758309421 1.6743954455 1.6743954455 1.7840462375 1.6743954455 1.7840462375 1.8974821136 
1.6743954455 1.7840462375 1.8974821136 2.0119052671 1.6743954455 1.7840462375 1.8974821136 2.0119052671 2.1243706857 
1.6743954455 1.7840462375 1.8974821136 2.0119052671 2.1243706857 2.232221744 1.6743954455 1.7840462375 1.8974821136 
2.0119052671 2.1243706857 2.232221744 2.3334263672 1.6743954455 1.7840462375 1.8974821136 2.0119052671 2.1243706857 
2.232221744 2.3334263672 2.426721652 1.4671972081 1.3575464161 1.4671972081 1.24411054 1.3575464161 1.4671972081 
1.1296873865 1.24411054 1.3575464161 1.4671972081 1.0172219679 1.1296873865 1.24411054 1.3575464161 1.4671972081 
0.90937090954 1.0172219679 1.1296873865 1.24411054 1.3575464161 1.4671972081 0.80816628637 0.90937090954 1.0172219679 
1.1296873865 1.24411054 1.3575464161 1.4671972081 0.71487100155 0.80816628637 0.90937090954 1.0172219679 1.1296873865 
1.24411054 1.3575464161 1.4671972081 0.60381225391 0.57404952988 0.69302191562 0.54002084522 0.66790778838 0.79216440667 
0.50083690068 0.63877777351 0.77356233629 0.90072551443 0.45538277901 0.60464862014 0.75168694275 0.89058134991 1.0172219679 
0.40226393329 0.56421707518 0.72561863695 0.87851444325 1.0172219679 1.139116835 0.33975332011 0.51573716537 0.69407236469 
0.86392567495 1.0172219679 1.1502619915 1.2630228569 0.26576171152 0.45685295248 0.6552068806 0.84594095064 1.0172219679 
1.1636342747 1.2852923014 1.3852070904 0.22715816343 0.3129712797 0.49462574053 0.49462574053 0.68021497688 0.77059342779 
1.0172219679 1.0172219679 1.0172219679 1.0172219679 2.1243706857 1.5707963268 1.3676273807 1.271087727 1.2156949949 
2.6469669131 2.1243706857 1.7739652728 1.5707963268 1.447813335 1.3676273807 2.8286213739 2.4613776767 2.1243706857 
1.8705049266 1.6937793186 1.5707963268 1.4827341049 2.9144344902 2.6469669131 2.3709992258 2.1243706857 1.9258976586 
1.7739652728 1.6588585487 1.5707963268 1.7563855631 1.8563003522 1.8785697967 1.9779583789 1.9913306621 2.0024758186 
2.1243706857 2.1243706857 2.1243706857 2.1243706857 2.295651703 2.2776669786 2.2630782103 2.2510113037 2.2408671392 
2.486385773 2.4475202889 2.4159740166 2.3899057108 2.3680303173 2.3494282469 2.6847397011 2.6258554882 2.5773755784 
2.5369440334 2.5028148801 2.4736848652 2.448570738 2.8758309421 2.8018393335 2.7393287203 2.6862098746 2.6407557529 
2.6015718084 2.5675431237 2.5377803997 5.8604937156 5.901393709 5.9723133995 5.9473927383 6.0216547488 6.0927478736 
5.9992719463 6.0767621038 6.1501452836 6.2190157008 6.0578962336 6.1383094565 6.2134963469 0 0.064169606361 
6.1241815303 6.206940195 6.2831853072 0.069688960264 0.13304002361 0.19043743361 6.1990255847 0 0.07624511221 
0.14487585072 0.20642320337 0.26153055843 0.3108719077 0 0.084159722458 0.15900377685 0.22528907359 0.28391336087 
0.3357925689 0.38179159818 0.42269159155 5.8604937156 5.9723133995 5.901393709 6.0927478736 6.0216547488 5.9473927383 
6.2190157008 6.1501452836 6.0767621038 5.9992719463 0.064169606361 0 6.2134963469 6.1383094565 6.0578962336 
0.19043743361 0.13304002361 0.069688960264 6.2831853072 6.206940195 6.1241815303 0.3108719077 0.26153055843 0.20642320337 
0.14487585072 0.07624511221 6.2831853072 6.1990255847 0.42269159155 0.38179159818 0.3357925689 0.28391336087 0.22528907359 
0.15900377685 0.084159722458 0 5.6793730533 5.7091357773 5.5901633916 5.743164462 5.6152775188 5.4910209005 
5.7823484065 5.6444075337 5.5096229709 5.3824597928 5.8278025282 5.678536687 5.5314983644 5.3926039573 5.2659633393 
5.8809213739 5.718968232 5.5575666702 5.4046708639 5.2659633393 5.1440684722 5.9434319871 5.7674481418 5.5891129425 
5.4192596322 5.2659633393 5.1329233157 5.0201624502 6.0174235957 5.8263323547 5.6279784266 5.4372443565 5.2659633393 
5.1195510325 4.9978930058 4.8979782167 1.3852070904 1.2852923014 1.2630228569 1.1636342747 1.1502619915 1.139116835 
1.0172219679 1.0172219679 1.0172219679 1.0172219679 0.84594095064 0.86392567495 0.87851444325 0.89058134991 0.90072551443 
0.6552068806 0.69407236469 0.72561863695 0.75168694275 0.77356233629 0.79216440667 0.45685295248 0.51573716537 0.56421707518 
0.60464862014 0.63877777351 0.66790778838 0.69302191562 0.26576171152 0.33975332011 0.40226393329 0.45538277901 0.50083690068 
0.54002084522 0.57404952988 0.60381225391 
