# vtk DataFile Version 4.1
vtk output
ASCII
DATASET POLYDATA
POINTS 1002 float
45.6417 94.0253 95.8813 47.7014 97.9632 103.726 43.7363 102.752 90.5941 
45.3342 106.248 99.0475 54.3406 99.5514 97.3945 52.1564 105.235 93.5266 
37.7205 94.2317 102.21 37.363 100.623 99.1555 53.4731 104.736 103.218 
49.0477 98.9124 90.0255 42.1531 101.877 106.108 39.7502 94.9593 93.7444 
45.6739 94.4747 96.4428 45.7283 94.9966 97.1104 45.8188 95.5126 97.8751 
45.9778 95.9657 98.7523 46.2325 96.3413 99.7148 46.4798 96.7565 100.62 
46.7304 97.154 101.451 47.0426 97.4545 102.289 47.3833 97.6993 103.075 
46.2262 94.6671 95.8274 46.98 95.2912 95.8266 47.8779 95.8747 95.8943 
48.8179 96.5053 95.983 49.6702 97.2319 96.0704 50.5902 97.9053 96.2657 
51.7056 98.3575 96.6073 52.8017 98.7052 96.9563 53.6688 99.1132 97.2167 
45.1428 93.654 96.3129 44.6209 93.3737 96.8642 44.0283 93.2409 97.5317 
43.2325 93.2708 98.274 42.2458 93.4054 99.145 41.2841 93.4665 100.118 
40.3296 93.3656 101 39.3135 93.3977 101.592 38.4004 93.7551 101.928 
45.9977 93.9955 95.3219 46.5146 94.0165 94.7115 47.1291 94.1156 94.0135 
47.7831 94.3393 93.2895 48.238 94.895 92.6011 48.3928 95.77 91.9919 
48.4921 96.7015 91.4696 48.6843 97.5293 90.9485 48.8788 98.2743 90.4645 
45.3793 93.2259 95.611 45.1584 92.269 95.3272 44.6602 91.5119 95.0249 
43.7778 91.3815 94.7166 42.7886 91.8526 94.3797 41.9104 92.5302 94.0532 
41.1049 93.1335 93.8282 40.4418 93.7001 93.7305 40.022 94.3243 93.7221 
48.3929 98.1756 103.264 49.2036 98.3474 102.79 50.1171 98.4657 102.286 
51.111 98.5514 101.793 52.0694 98.6635 101.201 52.8698 98.8268 100.462 
53.3905 99.0862 99.705 53.7781 99.333 98.9877 54.1103 99.4609 98.2116 
46.8418 97.5709 103.823 45.9195 97.1609 103.878 44.9625 96.6492 103.863 
43.9628 96.1046 103.781 42.8691 95.6501 103.618 41.7353 95.2309 103.356 
40.6127 94.857 103.069 39.5214 94.5955 102.781 38.5182 94.3837 102.484 
48.3935 98.4511 103.977 49.1321 99.0294 104.18 49.9202 99.6874 104.308 
50.7903 100.412 104.372 51.6768 101.156 104.41 52.4625 101.902 104.433 
53.0613 102.724 104.335 53.4042 103.537 104.087 53.4989 104.201 103.701 
47.4299 98.0582 104.357 47.0499 98.2791 104.966 46.5444 98.5976 105.496 
45.9412 98.9842 105.93 45.268 99.4372 106.347 44.5194 99.8847 106.73 
43.7452 100.343 106.901 43.063 100.89 106.79 42.5407 101.446 106.496 
43.8816 103.129 91.1959 44.0515 103.535 91.9273 44.2373 103.984 92.7464 
44.4379 104.422 93.6576 44.5992 104.889 94.5521 44.7488 105.329 95.4661 
44.9235 105.71 96.3807 45.0756 105.982 97.2922 45.2074 106.166 98.2224 
44.3769 103.097 90.3157 45.1208 103.454 90.1387 45.9758 103.854 90.0845 
46.8581 104.261 90.1934 47.8113 104.633 90.5146 48.854 104.901 91.0459 
49.8142 105.054 91.6846 50.6572 105.134 92.3479 51.4326 105.199 92.9588 
43.2123 102.595 91.3264 42.6724 102.38 92.2214 42.1119 102.127 93.2185 
41.4624 101.859 94.2541 40.6903 101.631 95.2466 39.8815 101.441 96.182 
39.1363 101.195 97.0412 38.4298 100.951 97.8024 37.8188 100.774 98.4814 
43.9397 102.612 89.774 44.0832 102.458 88.8702 44.3519 102.252 88.1259 
45.0481 101.905 87.9815 45.9695 101.441 88.3195 46.763 100.938 88.699 
47.4292 100.432 89.0071 48.0574 99.9042 89.3617 48.6073 99.3874 89.7026 
43.2261 102.279 90.4719 42.6614 101.71 90.4749 42.0964 101.049 90.6403 
41.501 100.316 90.8785 40.9235 99.4641 91.1982 40.4897 98.4878 91.6734 
40.1924 97.4283 92.2565 39.9374 96.4538 92.7957 39.7889 95.637 93.2906 
45.8872 106.675 98.5346 46.508 107.001 97.8994 47.2605 107.181 97.1553 
48.217 107.262 96.3578 49.183 107.198 95.6386 49.9157 106.875 95.1197 
50.5254 106.411 94.7064 51.1329 105.957 94.2767 51.6791 105.569 93.8691 
44.6683 105.767 99.0827 43.9256 105.232 99.1357 43.0746 104.678 99.1905 
42.1029 104.118 99.2315 41.1031 103.557 99.2866 40.1174 103.016 99.3251 
39.2012 102.464 99.3153 38.4376 101.864 99.2777 37.8372 101.23 99.217 
45.8859 106.521 99.579 46.577 106.624 100.021 47.4061 106.555 100.422 
48.3649 106.37 100.881 49.3533 106.16 101.409 50.3501 105.951 101.94 
51.3849 105.756 102.407 52.3118 105.533 102.778 52.9805 105.184 103.045 
45.0759 105.956 99.8531 44.7894 105.566 100.656 44.4619 105.172 101.542 
44.0959 104.762 102.454 43.7296 104.299 103.307 43.3906 103.794 104.054 
43.0284 103.301 104.7 42.6801 102.835 105.295 42.3811 102.376 105.781 
54.7845 99.9209 96.9496 55.1342 100.402 96.4433 55.3309 101.047 95.891 
55.3725 101.857 95.3348 55.2357 102.74 94.8316 54.841 103.557 94.4621 
54.2468 104.185 94.2265 53.5894 104.656 93.9687 52.8578 104.985 93.7214 
54.8368 99.9456 98.0717 55.3141 100.365 98.7946 55.878 100.71 99.6055 
56.2849 101.167 100.448 56.3262 101.864 101.209 55.9671 102.717 101.746 
55.4176 103.451 102.179 54.7851 103.984 102.58 54.1317 104.409 102.948 
54.0605 99.4371 96.4815 53.6763 99.3577 95.5474 53.2965 99.1633 94.5317 
52.9307 98.8526 93.4066 52.6409 98.4954 92.2595 52.3795 98.2031 91.2209 
51.8226 98.2361 90.5465 50.9062 98.5333 90.2804 49.8952 98.7886 90.1659 
52.5542 105.392 94.3225 53.0213 105.558 95.2636 53.4714 105.674 96.37 
53.672 105.475 97.5085 53.621 105.003 98.5919 53.7644 104.899 99.6146 
54.1084 105.204 100.596 54.1559 105.302 101.556 53.8463 105.054 102.469 
52.1634 104.883 92.8335 52.1064 104.404 92.0697 51.9804 103.821 91.3079 
51.7545 103.14 90.6303 51.5866 102.355 89.8828 51.5181 101.513 89.2011 
51.196 100.738 89.0327 50.5131 100.062 89.2985 49.7175 99.4595 89.6816 
36.9121 94.5162 102.188 36.1068 94.9052 102.113 35.4119 95.4007 101.964 
35.1006 96.1351 101.645 35.2594 97.1037 101.263 35.6966 98.0157 100.914 
36.147 98.7405 100.6 36.512 99.4607 100.125 36.9055 100.102 99.5929 
37.6196 94.8176 102.656 37.6808 95.5113 103.137 37.8778 96.3496 103.611 
38.1959 97.2296 104.078 38.6676 98.0091 104.609 39.2629 98.7615 105.138 
39.9445 99.5797 105.531 40.6985 100.445 105.837 41.4495 101.268 106.076 
37.3709 93.7904 101.733 37.0862 93.3407 101.105 36.9919 93.1871 100.245 
37.2074 93.3618 99.2172 37.6837 93.6951 98.1873 38.228 93.9837 97.2599 
38.7441 94.2182 96.3675 39.1996 94.4192 95.4612 39.5163 94.6429 94.5589 
37.2626 100.849 99.9107 37.1983 101.089 100.764 37.1933 101.334 101.755 
37.3425 101.559 102.801 37.7422 101.713 103.664 38.4413 101.792 104.368 
39.3632 101.823 104.938 40.3639 101.843 105.362 41.3142 101.882 105.73 
37.1872 100.128 98.6107 37.0609 99.6195 97.9679 36.9513 99.095 97.2503 
36.9865 98.4195 96.5737 37.1752 97.7002 95.9656 37.5537 96.9671 95.509 
38.1337 96.3321 95.1419 38.8283 95.8349 94.7798 39.352 95.3847 94.275 
52.7729 104.697 103.775 51.8894 104.602 104.245 50.774 104.455 104.685 
49.5457 104.256 105.157 48.2131 103.973 105.631 46.7815 103.535 106.006 
45.4361 103.039 106.234 44.1744 102.562 106.329 43.102 102.205 106.278 
48.1308 98.6315 90.1892 47.1271 98.2652 90.4043 46.0321 97.7905 90.6441 
44.9232 97.2952 90.9151 43.8193 96.7966 91.2582 42.7554 96.1992 91.5659 
41.7415 95.592 91.8326 40.7967 95.1658 92.2649 40.1592 94.9854 92.9671 
46.3234 95.128 96.4488 47.1137 95.7504 96.5161 46.4129 95.6667 97.1603 
48.0693 96.3676 96.6303 47.2866 96.2796 97.2802 46.6056 96.1451 97.9846 
49.0268 97.0527 96.7468 48.3237 96.866 97.4442 47.5781 96.7191 98.1586 
46.8919 96.5191 98.9408 50.0203 97.7011 96.9564 49.4332 97.432 97.7185 
48.6923 97.2516 98.4423 47.9264 97.0814 99.1823 47.2031 96.881 99.9453 
51.1596 98.2096 97.2979 50.5841 97.9759 98.0596 49.8666 97.765 98.8131 
49.0794 97.6049 99.5113 48.3073 97.4018 100.227 47.5403 97.2142 100.908 
52.3747 98.5647 97.6982 51.8019 98.4311 98.4248 51.1243 98.2475 99.1677 
50.3447 98.0647 99.876 49.5087 97.8853 100.549 48.6947 97.6861 101.206 
47.8291 97.5562 101.773 53.3697 98.9785 98.0115 52.9163 98.8565 98.7573 
52.3337 98.6891 99.4587 51.6317 98.4869 100.195 50.8073 98.298 100.885 
49.8885 98.1502 101.493 48.9759 98.0167 102.066 48.1132 97.8888 102.562 
46.6504 94.7509 95.2159 47.2359 94.8152 94.5415 47.5027 95.3943 95.1598 
47.9808 94.8533 93.8205 48.123 95.5106 94.4379 48.498 95.9767 95.2049 
48.7689 94.9831 93.0772 48.9145 95.5579 93.7249 49.1218 96.1415 94.4775 
49.4473 96.6364 95.297 49.253 95.5109 92.312 49.7423 95.7052 92.9359 
49.8863 96.3122 93.7451 50.1001 96.8564 94.575 50.324 97.4102 95.4063 
49.4188 96.4006 91.647 50.236 96.2516 92.0664 50.5991 96.6019 92.8658 
50.7624 97.1524 93.7812 51.0066 97.6407 94.6881 51.3044 98.0746 95.6311 
49.5984 97.2861 91.1116 50.5316 97.0117 91.3451 51.1668 97.0133 91.9224 
51.3856 97.4348 92.8618 51.6006 97.897 93.8902 51.9483 98.2824 94.9272 
52.3514 98.5651 95.9565 49.7861 98.0811 90.618 50.7924 97.7665 90.7595 
51.5984 97.5533 91.139 51.9831 97.7244 91.962 52.1667 98.1412 93.0471 
52.4846 98.5227 94.1766 52.8724 98.8367 95.2598 53.3004 98.9948 96.2587 
50.6987 99.3289 89.7914 51.4707 99.9495 89.4864 51.6828 99.0943 90.0161 
51.9481 100.726 89.5209 52.2297 99.8497 90.0337 52.425 98.9397 90.591 
52.1115 101.675 90.0772 52.5179 100.845 90.4621 52.7732 99.9285 90.993 
52.852 99.0873 91.5768 52.3045 102.593 90.8301 52.7998 101.895 91.1241 
53.1208 101.014 91.5835 53.2453 100.119 92.1328 53.2079 99.3818 92.7376 
52.594 103.365 91.4924 53.1189 102.756 91.7943 53.5684 101.964 92.1879 
53.7765 101.049 92.6905 53.7756 100.248 93.2656 53.632 99.6332 93.9044 
52.7832 104.026 92.2427 53.3584 103.496 92.5207 53.8878 102.811 92.855 
54.307 101.929 93.2486 54.3935 101.053 93.766 54.2873 100.359 94.3795 
54.0489 99.8115 95.0017 52.8786 104.585 93.0139 53.5207 104.154 93.3045 
54.1049 103.573 93.5599 54.6186 102.807 93.8584 54.9061 101.915 94.2756 
54.9023 101.094 94.8349 54.7421 100.414 95.4352 54.4521 99.8783 95.9977 
55.3261 100.32 97.6018 55.6731 100.852 97.0551 55.8395 100.792 98.3029 
55.7585 101.668 96.5272 56.0794 101.491 97.7781 56.3204 101.314 99.1064 
55.6556 102.624 96.0095 56.0226 102.458 97.2951 56.4479 102.277 98.5683 
56.588 102.08 99.971 55.3848 103.531 95.4869 55.7417 103.448 96.8159 
56.1905 103.315 98.1165 56.5763 103.171 99.4443 56.454 102.938 100.774 
54.8869 104.279 95.0966 55.3613 104.301 96.2765 55.7257 104.165 97.616 
56.1455 104.005 98.9148 56.3082 103.898 100.252 55.9502 103.713 101.365 
[...]
POINT_DATA 1002
SCALARS _paraPhi double
LOOKUP_TABLE default
6.2831853072 3.1415926536 6.2831853072 3.1415926536 4.7123889804 4.7123889804 1.5707963268 1.5707963268 3.6951670125 
5.7296109483 2.5880182947 0.5535743589 6.2831853072 6.2831853072 6.2831853072 6.2831853072 3.1415926536 3.1415926536 
3.1415926536 3.1415926536 3.1415926536 6.1053039672 5.898798347 5.6768734901 5.4599499503 5.2659633393 5.1032165617 
4.9713148346 4.8656852733 4.7809517865 0.17788134 0.38438696014 0.60631181711 0.82323535693 1.0172219679 1.1799687454 
1.3118704726 1.4175000338 1.5022335207 6.1892828907 6.1070320098 6.035312792 5.9728339911 5.9183214791 5.8706119594 
5.8286879411 5.7916808611 5.7588591896 0.093902416448 0.17615329733 0.2478725152 0.31035131605 0.36486382811 0.41257334776 
0.45449736604 0.4915044461 0.52432611754 3.3194739936 3.5259796137 3.7479044707 3.9648280105 4.1588146215 4.321561399 
4.4534631262 4.5590926874 4.6438261743 2.9637113136 2.7572056934 2.5352808365 2.3183572967 2.1243706857 1.9616239082 
1.829722181 1.7240926197 1.6393591329 3.23549507 3.3177459509 3.3894651688 3.4519439696 3.5064564817 3.5541660013 
3.5960900196 3.6330970997 3.6659187711 3.0476902371 2.9654393563 2.8937201384 2.8312413375 2.7767288255 2.7290193058 
2.6870952876 2.6500882075 2.617266536 6.2831853072 6.2831853072 6.2831853072 6.2831853072 3.1415926536 3.1415926536 
3.1415926536 3.1415926536 3.1415926536 6.1053039672 5.898798347 5.6768734901 5.4599499503 5.2659633393 5.1032165617 
4.9713148346 4.8656852733 4.7809517865 0.17788134 0.38438696014 0.60631181711 0.82323535693 1.0172219679 1.1799687454 
1.3118704726 1.4175000338 1.5022335207 6.1892828907 6.1070320098 6.035312792 5.9728339911 5.9183214791 5.8706119594 
5.8286879411 5.7916808611 5.7588591896 0.093902416448 0.17615329733 0.2478725152 0.31035131605 0.36486382811 0.41257334776 
0.45449736604 0.4915044461 0.52432611754 3.3194739936 3.5259796137 3.7479044707 3.9648280105 4.1588146215 4.321561399 
4.4534631262 4.5590926874 4.6438261743 2.9637113136 2.7572056934 2.5352808365 2.3183572967 2.1243706857 1.9616239082 
1.829722181 1.7240926197 1.6393591329 3.23549507 3.3177459509 3.3894651688 3.4519439696 3.5064564817 3.5541660013 
3.5960900196 3.6330970997 3.6659187711 3.0476902371 2.9654393563 2.8937201384 2.8312413375 2.7767288255 2.7290193058 
2.6870952876 2.6500882075 2.617266536 4.7123889804 4.7123889804 4.7123889804 4.7123889804 4.7123889804 4.7123889804 
4.7123889804 4.7123889804 4.7123889804 4.6087898617 4.4991390697 4.3857031936 4.2712800401 4.1588146215 4.0509635631 
3.94975894 3.8564636551 3.7716124825 4.8159880991 4.9256388911 5.0390747672 5.1534979207 5.2659633393 5.3738143976 
5.4750190208 5.5683143056 5.6531654782 4.6087898617 4.4991390697 4.3857031936 4.2712800401 4.1588146215 4.0509635631 
3.94975894 3.8564636551 3.7716124825 4.8159880991 4.9256388911 5.0390747672 5.1534979207 5.2659633393 5.3738143976 
5.4750190208 5.5683143056 5.6531654782 1.5707963268 1.5707963268 1.5707963268 1.5707963268 1.5707963268 1.5707963268 
1.5707963268 1.5707963268 1.5707963268 1.6743954455 1.7840462375 1.8974821136 2.0119052671 2.1243706857 2.232221744 
2.3334263672 2.426721652 2.5115728246 1.4671972081 1.3575464161 1.24411054 1.1296873865 1.0172219679 0.90937090954 
0.80816628637 0.71487100155 0.63001982895 1.6743954455 1.7840462375 1.8974821136 2.0119052671 2.1243706857 2.232221744 
2.3334263672 2.426721652 2.5115728246 1.4671972081 1.3575464161 1.24411054 1.1296873865 1.0172219679 0.90937090954 
0.80816628637 0.71487100155 0.63001982895 3.6007720849 3.4966939854 3.3839471039 3.2645756454 3.1415926536 3.0186096618 
2.8992382033 2.7864913217 2.6824132222 5.8240058758 5.9280839753 6.0408308569 6.1602023154 6.2831853072 0.12298299178 
0.2423544503 0.35510133185 0.45917943135 6.0560271438 5.7885595667 5.9702140275 5.5125918794 5.6029703303 5.7885595667 
5.2659633393 5.2659633393 5.2659633393 5.2659633393 5.0674903122 5.0120975802 4.9155579264 4.7123889804 4.1588146215 
4.9155579264 4.8353719722 4.7123889804 4.5092200343 4.1588146215 3.6362183941 4.8004512023 4.7123889804 4.5894059886 
4.4126803806 4.1588146215 3.8218076305 3.4545639333 4.7123889804 4.6243267584 4.5092200343 4.3572876485 4.1588146215 
3.9121860814 3.6362183941 3.368750817 6.0174235957 5.9434319871 5.8263323547 5.8809213739 5.7674481418 5.6279784266 
5.8278025282 5.718968232 5.5891129425 5.4372443565 5.7823484065 5.678536687 5.5575666702 5.4192596322 5.2659633393 
5.743164462 5.6444075337 5.5314983644 5.4046708639 5.2659633393 5.1195510325 5.7091357773 5.6152775188 5.5096229709 
5.3926039573 5.2659633393 5.1329233157 4.9978930058 5.6793730533 5.5901633916 5.4910209005 5.3824597928 5.2659633393 
5.1440684722 5.0201624502 4.8979782167 5.5683143056 5.4750190208 5.4750190208 5.3738143976 5.3738143976 5.3738143976 
5.2659633393 5.2659633393 5.2659633393 5.2659633393 5.1534979207 5.1534979207 5.1534979207 5.1534979207 5.1534979207 
5.0390747672 5.0390747672 5.0390747672 5.0390747672 5.0390747672 5.0390747672 4.9256388911 4.9256388911 4.9256388911 
4.9256388911 4.9256388911 4.9256388911 4.9256388911 4.8159880991 4.8159880991 4.8159880991 4.8159880991 4.8159880991 
4.8159880991 4.8159880991 4.8159880991 4.6087898617 4.6087898617 4.4991390697 4.6087898617 4.4991390697 4.3857031936 
4.6087898617 4.4991390697 4.3857031936 4.2712800401 4.6087898617 4.4991390697 4.3857031936 4.2712800401 4.1588146215 
4.6087898617 4.4991390697 4.3857031936 4.2712800401 4.1588146215 4.0509635631 4.6087898617 4.4991390697 4.3857031936 
4.2712800401 4.1588146215 4.0509635631 3.94975894 4.6087898617 4.4991390697 4.3857031936 4.2712800401 4.1588146215 
4.0509635631 3.94975894 3.8564636551 4.526799744 4.4046155105 4.426884955 4.2807094886 4.2918546451 4.3052269283 
4.1588146215 4.1588146215 4.1588146215 4.1588146215 4.042318168 4.0321740035 4.0201070968 4.0055183285 3.9875336042 
3.9337570603 3.9151549899 3.8932795963 3.8672112905 3.8356650183 3.7967995342 3.8346145692 3.809500442 3.7803704271 
3.7462412737 3.7058097288 3.657329819 3.5984456061 3.7454049075 3.7156421835 3.6816134988 3.6424295543 3.5969754326 
3.5438565869 3.4813459737 3.4073543651 3.5642842451 3.4524645613 3.5233842518 3.3320300872 3.403123212 3.4773852225 
3.20576226 3.2746326772 3.348015857 3.4255060145 3.0774230472 3.1415926536 3.2112816139 3.2864685043 3.3668817272 
2.95115522 3.00855263 3.0719036933 3.1415926536 3.2178377658 3.3005964304 2.8307207459 2.8800620952 2.9351694502 
2.9967168029 3.0653475414 3.1415926536 3.225752376 2.718901062 2.7598010554 2.8058000847 2.8576792927 2.91630358 
2.9825888767 3.0574329311 3.1415926536 3.5642842451 3.5233842518 3.4524645613 3.4773852225 3.403123212 3.3320300872 
3.4255060145 3.348015857 3.2746326772 3.20576226 3.3668817272 3.2864685043 3.2112816139 3.1415926536 3.0774230472 
3.3005964304 3.2178377658 3.1415926536 3.0719036933 3.00855263 2.95115522 3.225752376 3.1415926536 3.0653475414 
2.9967168029 2.9351694502 2.8800620952 2.8307207459 3.1415926536 3.0574329311 2.9825888767 2.91630358 2.8576792927 
2.8058000847 2.7598010554 2.718901062 4.526799744 4.426884955 4.4046155105 4.3052269283 4.2918546451 4.2807094886 
4.1588146215 4.1588146215 4.1588146215 4.1588146215 3.9875336042 4.0055183285 4.0201070968 4.0321740035 4.042318168 
3.7967995342 3.8356650183 3.8672112905 3.8932795963 3.9151549899 3.9337570603 3.5984456061 3.657329819 3.7058097288 
3.7462412737 3.7803704271 3.809500442 3.8346145692 3.4073543651 3.4813459737 3.5438565869 3.5969754326 3.6424295543 
3.6816134988 3.7156421835 3.7454049075 4.7123889804 4.8004512023 4.6243267584 4.9155579264 4.7123889804 4.5092200343 
5.0674903122 4.8353719722 4.5894059886 4.3572876485 5.2659633393 5.0120975802 4.7123889804 4.4126803806 4.1588146215 
5.5125918794 5.2659633393 4.9155579264 4.5092200343 4.1588146215 3.9121860814 5.7885595667 5.6029703303 5.2659633393 
4.7123889804 4.1588146215 3.8218076305 3.6362183941 6.0560271438 5.9702140275 5.7885595667 5.2659633393 4.1588146215 
3.6362183941 3.4545639333 3.368750817 0.22715816343 0.49462574053 0.3129712797 0.77059342779 0.68021497688 0.49462574053 
1.0172219679 1.0172219679 1.0172219679 1.0172219679 1.2156949949 1.271087727 1.3676273807 1.5707963268 2.1243706857 
1.3676273807 1.447813335 1.5707963268 1.7739652728 2.1243706857 2.6469669131 1.4827341049 1.5707963268 1.6937793186 
1.8705049266 2.1243706857 2.4613776767 2.8286213739 1.5707963268 1.6588585487 1.7739652728 1.9258976586 2.1243706857 
2.3709992258 2.6469669131 2.9144344902 1.7563855631 1.8785697967 1.8563003522 2.0024758186 1.9913306621 1.9779583789 
2.1243706857 2.1243706857 2.1243706857 2.1243706857 2.2408671392 2.2510113037 2.2630782103 2.2776669786 2.295651703 
2.3494282469 2.3680303173 2.3899057108 2.4159740166 2.4475202889 2.486385773 2.448570738 2.4736848652 2.5028148801 
2.5369440334 2.5773755784 2.6258554882 2.6847397011 2.5377803997 2.5675431237 2.6015718084 2.6407557529 2.6862098746 
2.7393287203 2.8018393335 2.8758309421 1.6743954455 1.6743954455 1.7840462375 1.6743954455 1.7840462375 1.8974821136 
1.6743954455 1.7840462375 1.8974821136 2.0119052671 1.6743954455 1.7840462375 1.8974821136 2.0119052671 2.1243706857 
1.6743954455 1.7840462375 1.8974821136 2.0119052671 2.1243706857 2.232221744 1.6743954455 1.7840462375 1.8974821136 
2.0119052671 2.1243706857 2.232221744 2.3334263672 1.6743954455 1.7840462375 1.8974821136 2.0119052671 2.1243706857 
2.232221744 2.3334263672 2.426721652 1.4671972081 1.3575464161 1.4671972081 1.24411054 1.3575464161 1.4671972081 
1.1296873865 1.24411054 1.3575464161 1.4671972081 1.0172219679 1.1296873865 1.24411054 1.3575464161 1.4671972081 
0.90937090954 1.0172219679 1.1296873865 1.24411054 1.3575464161 1.4671972081 0.80816628637 0.90937090954 1.0172219679 
1.1296873865 1.24411054 1.3575464161 1.4671972081 0.71487100155 0.80816628637 0.90937090954 1.0172219679 1.1296873865 
1.24411054 1.3575464161 1.4671972081 0.60381225391 0.57404952988 0.69302191562 0.54002084522 0.66790778838 0.79216440667 
0.50083690068 0.63877777351 0.77356233629 0.90072551443 0.45538277901 0.60464862014 0.75168694275 0.89058134991 1.0172219679 
0.40226393329 0.56421707518 0.72561863695 0.87851444325 1.0172219679 1.139116835 0.33975332011 0.51573716537 0.69407236469 
0.86392567495 1.0172219679 1.1502619915 1.2630228569 0.26576171152 0.45685295248 0.6552068806 0.84594095064 1.0172219679 
1.1636342747 1.2852923014 1.3852070904 0.22715816343 0.3129712797 0.49462574053 0.49462574053 0.68021497688 0.77059342779 
1.0172219679 1.0172219679 1.0172219679 1.0172219679 2.1243706857 1.5707963268 1.3676273807 1.271087727 1.2156949949 
2.6469669131 2.1243706857 1.7739652728 1.5707963268 1.447813335 1.3676273807 2.8286213739 2.4613776767 2.1243706857 
1.8705049266 1.6937793186 1.5707963268 1.4827341049 2.9144344902 2.6469669131 2.3709992258 2.1243706857 1.9258976586 
1.7739652728 1.6588585487 1.5707963268 1.7563855631 1.8563003522 1.8785697967 1.9779583789 1.9913306621 2.0024758186 
2.1243706857 2.1243706857 2.1243706857 2.1243706857 2.295651703 2.2776669786 2.2630782103 2.2510113037 2.2408671392 
2.486385773 2.4475202889 2.4159740166 2.3899057108 2.3680303173 2.3494282469 2.6847397011 2.6258554882 2.5773755784 
2.5369440334 2.5028148801 2.4736848652 2.448570738 2.8758309421 2.8018393335 2.7393287203 2.6862098746 2.6407557529 
2.6015718084 2.5675431237 2.5377803997 5.8604937156 5.901393709 5.9723133995 5.9473927383 6.0216547488 6.0927478736 
5.9992719463 6.0767621038 6.1501452836 6.2190157008 6.0578962336 6.1383094565 6.2134963469 0 0.064169606361 
6.1241815303 6.206940195 6.2831853072 0.069688960264 0.13304002361 0.19043743361 6.1990255847 0 0.07624511221 
0.14487585072 0.20642320337 0.26153055843 0.3108719077 0 0.084159722458 0.15900377685 0.22528907359 0.28391336087 
0.3357925689 0.38179159818 0.42269159155 5.8604937156 5.9723133995 5.901393709 6.0927478736 6.0216547488 5.9473927383 
6.2190157008 6.1501452836 6.0767621038 5.9992719463 0.064169606361 0 6.2134963469 6.1383094565 6.0578962336 
0.19043743361 0.13304002361 0.069688960264 6.2831853072 6.206940195 6.1241815303 0.3108719077 0.26153055843 0.20642320337 
0.14487585072 0.07624511221 6.2831853072 6.1990255847 0.42269159155 0.38179159818 0.3357925689 0.28391336087 0.22528907359 
0.15900377685 0.084159722458 0 5.6793730533 5.7091357773 5.5901633916 5.743164462 5.6152775188 5.4910209005 
5.7823484065 5.6444075337 5.5096229709 5.3824597928 5.8278025282 5.678536687 5.5314983644 5.3926039573 5.2659633393 
5.8809213739 5.718968232 5.5575666702 5.4046708639 5.2659633393 5.1440684722 5.9434319871 5.7674481418 5.5891129425 
5.4192596322 5.2659633393 5.1329233157 5.0201624502 6.0174235957 5.8263323547 5.6279784266 5.4372443565 5.2659633393 
5.1195510325 4.9978930058 4.8979782167 1.3852070904 1.2852923014 1.2630228569 1.1636342747 1.1502619915 1.139116835 
1.0172219679 1.0172219679 1.0172219679 1.0172219679 0.84594095064 0.86392567495 0.87851444325 0.89058134991 0.90072551443 
0.6552068806 0.69407236469 0.72561863695 0.75168694275 0.77356233629 0.79216440667 0.45685295248 0.51573716537 0.56421707518 
0.60464862014 0.63877777351 0.66790778838 0.69302191562 0.26576171152 0.33975332011 0.40226393329 0.45538277901 0.50083690068 
0.54002084522 0.57404952988 0.60381225391 
