# vtk DataFile Version 4.1
vtk output
ASCII
DATASET POLYDATA
POINTS 1002 float
46.6719 96.2772 94.8996 49.1448 98.4005 104.2 43.8583 102.014 91.9752 
44.6957 104.884 100.107 52.9081 101.323 98.7298 51.0774 104.511 95.7705 
39.4353 96.5277 100.557 37.2362 100.886 98.3381 53.3558 104.925 104.699 
49.6983 99.7836 89.5416 43.0342 101.58 105.292 40.4564 95.9991 92.0229 
46.5805 96.9217 95.4481 46.5454 97.5255 96.1454 46.5952 98.0961 97.0269 
46.7609 98.5229 98.1319 47.1427 98.6503 99.3855 47.6106 98.6192 100.592 
48.0306 98.6507 101.68 48.499 98.5756 102.672 48.9341 98.4078 103.526 
47.0281 96.8385 94.9298 47.4648 97.5072 95.0426 47.9975 98.1436 95.3106 
48.5952 98.7832 95.6712 49.2684 99.3562 96.1307 49.9157 99.8986 96.7038 
50.6367 100.349 97.3542 51.5023 100.66 97.9379 52.2509 100.992 98.3921 
46.2752 96.1875 95.2534 45.8139 96.1474 95.7019 45.2573 96.1278 96.2834 
44.5786 96.2183 96.9883 43.7471 96.3493 97.7226 42.7374 96.4422 98.3965 
41.7026 96.5405 98.9773 40.7825 96.5956 99.5552 40.0528 96.5138 100.119 
46.9983 95.8814 94.4532 47.3453 95.6571 93.9977 47.7696 95.6637 93.5042 
48.3034 95.9458 92.8587 48.8824 96.2568 92.1718 49.4022 96.7074 91.4987 
49.6042 97.4831 90.8981 49.66 98.3148 90.3914 49.6522 99.0896 89.9651 
46.6261 95.2986 94.7086 46.5141 94.2639 94.533 46.0654 93.8058 94.2247 
45.3765 94.1229 93.7696 44.7248 94.8181 93.4114 44.0064 95.4634 93.1808 
43.0783 95.892 92.8899 42.0988 95.99 92.5563 41.1784 95.9678 92.2324 
49.7507 98.6721 103.841 50.333 98.965 103.402 50.8497 99.2907 102.893 
51.3288 99.6816 102.349 51.7819 100.097 101.758 52.2038 100.396 101.106 
52.557 100.67 100.532 52.797 100.934 99.9831 52.9045 101.148 99.3767 
48.3945 98.1803 104.094 47.479 98.0971 103.887 46.4827 98.0386 103.562 
45.3741 97.9732 102.967 44.1092 97.9455 102.228 42.9406 97.7736 101.695 
42.0184 97.3981 101.343 41.1606 97.0526 101.034 40.2435 96.7755 100.776 
49.595 98.7612 104.583 50.0561 99.2772 104.931 50.605 99.9048 105.23 
51.1455 100.64 105.398 51.6768 101.424 105.468 52.2896 102.259 105.511 
52.862 103.119 105.446 53.1955 103.846 105.256 53.3621 104.452 105.025 
48.8105 98.368 104.789 48.3535 98.5178 105.361 47.703 98.7736 105.84 
46.9197 99.0085 106.288 46.002 99.3317 106.578 45.1001 99.8075 106.623 
44.3885 100.389 106.44 43.8327 100.885 106.191 43.3907 101.291 105.782 
43.8637 102.317 92.5774 43.8508 102.625 93.2558 43.8048 103.019 94.0056 
43.7747 103.439 94.8134 43.81 103.791 95.6789 43.8774 104.146 96.5959 
43.9872 104.464 97.5024 44.1475 104.687 98.3945 44.3889 104.817 99.2826 
44.44 102.371 91.7822 45.0676 102.725 91.6697 45.7313 103.067 91.6654 
46.4486 103.421 91.8109 47.223 103.752 92.1363 48.0536 103.99 92.6689 
48.8848 104.17 93.3858 49.6507 104.295 94.2203 50.3658 104.39 95.0584 
43.2608 101.883 92.5279 42.5628 101.763 93.096 41.8173 101.603 93.7257 
41.0572 101.436 94.4013 40.2496 101.364 95.0337 39.4433 101.324 95.6926 
38.7528 101.208 96.4166 38.1721 101.097 97.1058 37.6537 100.995 97.7387 
44.2373 101.918 91.2496 44.7079 101.81 90.5039 45.1757 101.727 89.7133 
45.5927 101.7 88.8234 46.1962 101.588 88.2338 47.1016 101.353 88.3054 
47.9849 101.044 88.6478 48.6514 100.672 88.9561 49.2484 100.226 89.2283 
43.5067 101.599 91.7536 43.0986 101.155 91.5578 42.6177 100.656 91.4057 
42.1234 100.059 91.3378 41.6635 99.3563 91.3384 41.151 98.5973 91.33 
40.6228 97.8689 91.2521 40.3146 97.135 91.2859 40.2658 96.4247 91.5435 
45.3243 105.039 99.749 46.0471 105.134 99.378 46.8606 105.142 98.9716 
47.7092 105.092 98.5009 48.4986 105.092 97.9852 49.1993 105.128 97.4551 
49.8143 105.055 96.9657 50.3108 104.876 96.5628 50.7335 104.697 96.1611 
43.9141 104.651 99.9792 43.1001 104.339 99.8306 42.2602 103.962 99.6735 
41.2832 103.61 99.4898 40.3273 103.261 99.3018 39.4725 102.838 99.0783 
38.681 102.389 98.844 38.0919 101.908 98.6919 37.6306 101.389 98.5192 
45.4558 105.039 100.634 46.2566 105.174 101.15 47.1382 105.259 101.746 
48.1365 105.402 102.464 49.1305 105.573 103.088 49.9959 105.576 103.503 
50.8733 105.439 103.848 51.8164 105.32 104.196 52.6701 105.146 104.465 
44.5677 104.75 100.769 44.4565 104.517 101.415 44.3191 104.215 102.001 
44.14 103.859 102.582 43.9738 103.457 103.158 43.7925 103.058 103.709 
43.5604 102.699 104.245 43.3485 102.348 104.685 43.1769 101.981 105.033 
53.3318 101.62 98.4852 53.7333 101.948 98.1882 53.994 102.313 97.8099 
54.0881 102.77 97.3451 53.9983 103.343 96.9109 53.6595 103.903 96.5946 
53.1185 104.272 96.345 52.4758 104.447 96.1166 51.7784 104.504 95.9235 
53.5058 101.605 99.4588 54.1237 101.926 100.26 54.8566 102.116 101.034 
55.4861 102.326 101.745 55.7792 102.782 102.468 55.7152 103.403 103.177 
55.4629 103.995 103.834 54.9228 104.48 104.306 54.2068 104.785 104.575 
52.5309 101.239 97.8601 52.0825 101.13 96.8654 51.6838 100.919 95.5978 
51.3906 100.605 94.1423 51.3113 100.204 92.8668 51.3579 99.7872 91.8014 
51.3122 99.5114 90.7961 50.9836 99.4825 90.0248 50.3829 99.6287 89.6576 
51.6702 104.804 96.6597 52.3098 105.107 97.5971 52.9493 105.38 98.5908 
53.4868 105.62 99.601 53.9107 105.778 100.681 54.1587 105.82 101.771 
54.2172 105.73 102.727 54.0575 105.491 103.517 53.7945 105.246 104.204 
50.9275 104.208 94.9562 50.7498 103.853 94.0493 50.5984 103.447 93.0559 
50.5142 102.98 91.9862 50.4771 102.511 90.9004 50.5505 102.048 89.8606 
50.7063 101.523 89.0613 50.6654 100.926 88.8142 50.1966 100.343 89.1501 
38.6024 96.342 100.628 37.7975 96.4533 100.539 37.0927 96.7882 100.394 
36.5103 97.21 100.268 36.1104 97.7745 100.092 35.9731 98.6986 99.7276 
36.0638 99.6056 99.2878 36.342 100.153 98.9069 36.7736 100.519 98.6036 
39.3154 96.8378 101.065 39.326 97.3667 101.543 39.4755 97.9085 102.088 
39.7512 98.3951 102.747 40.1588 98.8829 103.425 40.6673 99.3813 104.017 
41.2314 99.9423 104.485 41.8486 100.538 104.844 42.4467 101.097 105.127 
39.1354 96.1575 100.036 38.9215 95.8609 99.3639 38.8076 95.7176 98.5651 
38.9173 95.9267 97.7892 39.2408 96.3573 96.8877 39.6839 96.4891 95.6972 
39.997 96.3532 94.562 40.1259 96.1156 93.6622 40.2375 95.9015 92.7997 
37.1349 101.098 99.1056 37.1262 101.331 100.029 37.2237 101.555 101.046 
37.5594 101.691 101.994 38.1727 101.706 102.782 39.0671 101.647 103.392 
40.1824 101.579 103.848 41.3047 101.538 104.265 42.258 101.547 104.754 
37.1363 100.445 97.7731 37.1345 99.9737 97.1484 37.2443 99.4466 96.444 
37.4127 98.8649 95.6839 37.695 98.2835 94.9079 38.1211 97.7428 94.1587 
38.6564 97.1537 93.4958 39.2091 96.5639 92.9362 39.7717 96.1667 92.4026 
52.4055 104.722 104.995 51.2779 104.456 105.288 50.1538 104.182 105.644 
49.035 103.9 106.08 47.8867 103.478 106.38 46.7886 102.927 106.379 
45.7193 102.496 106.271 44.7006 102.192 106.075 43.8282 101.876 105.711 
48.9525 99.4619 89.7279 48.2285 99.0608 89.8305 47.2972 98.6839 90.0734 
46.2396 98.3067 90.3795 45.2814 97.8648 90.5655 44.2187 97.4121 90.8275 
42.991 97.0491 91.0942 41.9498 96.6181 91.2125 41.1181 96.2119 91.4932 
47.0086 97.4989 95.581 47.5139 98.1375 95.8393 47.0644 98.1006 96.4081 
48.1225 98.7171 96.2136 47.6441 98.697 96.7871 47.1902 98.6127 97.4587 
48.826 99.2564 96.6917 48.3248 99.1838 97.3313 47.8522 99.0954 98.0277 
47.4713 98.912 98.7469 49.5007 99.8254 97.3069 49.0595 99.7082 97.9724 
48.6178 99.5493 98.7216 48.2549 99.2806 99.4229 47.971 98.9367 100.009 
50.2783 100.27 97.9627 49.8283 100.193 98.646 49.5045 99.9582 99.3682 
49.1872 99.6193 100.055 48.8612 99.2347 100.595 48.5192 98.8702 101.124 
51.2207 100.57 98.5575 50.9083 100.37 99.1625 50.5456 100.168 99.8152 
50.258 99.821 100.485 49.8734 99.4411 101.051 49.4771 99.0881 101.594 
49.0421 98.787 102.168 52.1794 100.807 99.0124 52.0318 100.548 99.6074 
51.6813 100.309 100.172 51.3045 100.025 100.788 50.8874 99.6915 101.41 
50.4365 99.3132 101.974 50.0007 98.9813 102.563 49.502 98.6765 103.099 
47.3496 96.6727 94.3869 47.7264 96.6047 93.9157 47.8522 97.4131 94.4943 
48.1935 96.6748 93.3581 48.2939 97.4081 93.9202 48.438 98.1074 94.7277 
48.7815 96.8235 92.6879 48.7631 97.5118 93.3095 48.905 98.1632 94.1468 
49.0484 98.8362 95.0977 49.4936 97.0152 92.005 49.3318 97.6667 92.6509 
49.3655 98.3244 93.4635 49.4968 98.9437 94.4682 49.6859 99.4745 95.5651 
50.0345 97.4439 91.3247 49.999 97.8738 91.9623 49.849 98.5232 92.7601 
49.9509 99.0786 93.7669 50.1592 99.5559 94.9212 50.3874 99.9804 96.1509 
50.2839 98.102 90.6916 50.5693 98.1965 91.2923 50.4374 98.714 92.1143 
50.3425 99.3173 93.0367 50.5674 99.7355 94.2056 50.8482 100.096 95.5362 
51.1264 100.438 96.8314 50.3357 98.8865 90.154 50.8719 98.7704 90.621 
50.9843 99.0126 91.4548 50.8541 99.5246 92.4131 50.8692 100.015 93.4694 
51.1452 100.356 94.8248 51.4904 100.638 96.2405 51.8254 100.879 97.4235 
50.8677 100.231 89.3782 51.0691 100.888 89.4601 51.302 100.179 90.0604 
50.929 101.561 90.1761 51.3231 100.953 90.5444 51.569 100.262 91.0988 
50.9002 102.139 91.1431 51.3002 101.698 91.3903 51.7273 101.045 91.7188 
51.7376 100.473 92.2639 51.0062 102.663 92.1599 51.4432 102.323 92.3775 
51.866 101.81 92.6201 52.0765 101.196 93.0265 51.8024 100.806 93.5801 
51.1375 103.199 93.2166 51.6611 102.911 93.4212 52.0931 102.512 93.6857 
52.3793 101.949 94.0471 52.3202 101.448 94.5405 51.9859 101.162 95.0921 
51.3261 103.693 94.2316 51.9366 103.493 94.4268 52.4592 103.165 94.6762 
52.8067 102.65 95.0279 52.8983 102.091 95.482 52.7181 101.69 96.0114 
52.4087 101.411 96.4878 51.5694 104.127 95.1273 52.2348 104.02 95.3244 
52.8297 103.773 95.5585 53.2819 103.304 95.8444 53.4962 102.713 96.2361 
53.4682 102.208 96.7323 53.2605 101.845 97.2021 52.9054 101.537 97.5706 
53.9908 101.947 99.2204 54.3904 102.323 98.9052 54.6618 102.271 100.022 
54.5977 102.794 98.4644 54.9983 102.731 99.6308 55.3166 102.555 100.783 
54.6615 103.369 97.9641 55.1749 103.348 99.0986 55.5136 103.211 100.358 
55.8052 103.007 101.572 54.4301 103.969 97.5836 55.1166 103.99 98.6418 
55.524 103.944 99.8729 55.8504 103.844 101.242 56.0324 103.643 102.375 
53.8967 104.444 97.3197 54.6433 104.532 98.3759 55.1981 104.545 99.527 
55.5603 104.533 100.841 55.9369 104.496 102.103 55.9559 104.302 103.112 
[...]
POINT_DATA 1002
SCALARS _paraPhi double
LOOKUP_TABLE default
6.2831853072 3.1415926536 6.2831853072 3.1415926536 4.7123889804 4.7123889804 1.5707963268 1.5707963268 3.6951670125 
5.7296109483 2.5880182947 0.5535743589 6.2831853072 6.2831853072 6.2831853072 6.2831853072 3.1415926536 3.1415926536 
3.1415926536 3.1415926536 3.1415926536 6.1053039672 5.898798347 5.6768734901 5.4599499503 5.2659633393 5.1032165617 
4.9713148346 4.8656852733 4.7809517865 0.17788134 0.38438696014 0.60631181711 0.82323535693 1.0172219679 1.1799687454 
1.3118704726 1.4175000338 1.5022335207 6.1892828907 6.1070320098 6.035312792 5.9728339911 5.9183214791 5.8706119594 
5.8286879411 5.7916808611 5.7588591896 0.093902416448 0.17615329733 0.2478725152 0.31035131605 0.36486382811 0.41257334776 
0.45449736604 0.4915044461 0.52432611754 3.3194739936 3.5259796137 3.7479044707 3.9648280105 4.1588146215 4.321561399 
4.4534631262 4.5590926874 4.6438261743 2.9637113136 2.7572056934 2.5352808365 2.3183572967 2.1243706857 1.9616239082 
1.829722181 1.7240926197 1.6393591329 3.23549507 3.3177459509 3.3894651688 3.4519439696 3.5064564817 3.5541660013 
3.5960900196 3.6330970997 3.6659187711 3.0476902371 2.9654393563 2.8937201384 2.8312413375 2.7767288255 2.7290193058 
2.6870952876 2.6500882075 2.617266536 6.2831853072 6.2831853072 6.2831853072 6.2831853072 3.1415926536 3.1415926536 
3.1415926536 3.1415926536 3.1415926536 6.1053039672 5.898798347 5.6768734901 5.4599499503 5.2659633393 5.1032165617 
4.9713148346 4.8656852733 4.7809517865 0.17788134 0.38438696014 0.60631181711 0.82323535693 1.0172219679 1.1799687454 
1.3118704726 1.4175000338 1.5022335207 6.1892828907 6.1070320098 6.035312792 5.9728339911 5.9183214791 5.8706119594 
5.8286879411 5.7916808611 5.7588591896 0.093902416448 0.17615329733 0.2478725152 0.31035131605 0.36486382811 0.41257334776 
0.45449736604 0.4915044461 0.52432611754 3.3194739936 3.5259796137 3.7479044707 3.9648280105 4.1588146215 4.321561399 
4.4534631262 4.5590926874 4.6438261743 2.9637113136 2.7572056934 2.5352808365 2.3183572967 2.1243706857 1.9616239082 
1.829722181 1.7240926197 1.6393591329 3.23549507 3.3177459509 3.3894651688 3.4519439696 3.5064564817 3.5541660013 
3.5960900196 3.6330970997 3.6659187711 3.0476902371 2.9654393563 2.8937201384 2.8312413375 2.7767288255 2.7290193058 
2.6870952876 2.6500882075 2.617266536 4.7123889804 4.7123889804 4.7123889804 4.7123889804 4.7123889804 4.7123889804 
4.7123889804 4.7123889804 4.7123889804 4.6087898617 4.4991390697 4.3857031936 4.2712800401 4.1588146215 4.0509635631 
3.94975894 3.8564636551 3.7716124825 4.8159880991 4.9256388911 5.0390747672 5.1534979207 5.2659633393 5.3738143976 
5.4750190208 5.5683143056 5.6531654782 4.6087898617 4.4991390697 4.3857031936 4.2712800401 4.1588146215 4.0509635631 
3.94975894 3.8564636551 3.7716124825 4.8159880991 4.9256388911 5.0390747672 5.1534979207 5.2659633393 5.3738143976 
5.4750190208 5.5683143056 5.6531654782 1.5707963268 1.5707963268 1.5707963268 1.5707963268 1.5707963268 1.5707963268 
1.5707963268 1.5707963268 1.5707963268 1.6743954455 1.7840462375 1.8974821136 2.0119052671 2.1243706857 2.232221744 
2.3334263672 2.426721652 2.5115728246 1.4671972081 1.3575464161 1.24411054 1.1296873865 1.0172219679 0.90937090954 
0.80816628637 0.71487100155 0.63001982895 1.6743954455 1.7840462375 1.8974821136 2.0119052671 2.1243706857 2.232221744 
2.3334263672 2.426721652 2.5115728246 1.4671972081 1.3575464161 1.24411054 1.1296873865 1.0172219679 0.90937090954 
0.80816628637 0.71487100155 0.63001982895 3.6007720849 3.4966939854 3.3839471039 3.2645756454 3.1415926536 3.0186096618 
2.8992382033 2.7864913217 2.6824132222 5.8240058758 5.9280839753 6.0408308569 6.1602023154 6.2831853072 0.12298299178 
0.2423544503 0.35510133185 0.45917943135 6.0560271438 5.7885595667 5.9702140275 5.5125918794 5.6029703303 5.7885595667 
5.2659633393 5.2659633393 5.2659633393 5.2659633393 5.0674903122 5.0120975802 4.9155579264 4.7123889804 4.1588146215 
4.9155579264 4.8353719722 4.7123889804 4.5092200343 4.1588146215 3.6362183941 4.8004512023 4.7123889804 4.5894059886 
4.4126803806 4.1588146215 3.8218076305 3.4545639333 4.7123889804 4.6243267584 4.5092200343 4.3572876485 4.1588146215 
3.9121860814 3.6362183941 3.368750817 6.0174235957 5.9434319871 5.8263323547 5.8809213739 5.7674481418 5.6279784266 
5.8278025282 5.718968232 5.5891129425 5.4372443565 5.7823484065 5.678536687 5.5575666702 5.4192596322 5.2659633393 
5.743164462 5.6444075337 5.5314983644 5.4046708639 5.2659633393 5.1195510325 5.7091357773 5.6152775188 5.5096229709 
5.3926039573 5.2659633393 5.1329233157 4.9978930058 5.6793730533 5.5901633916 5.4910209005 5.3824597928 5.2659633393 
5.1440684722 5.0201624502 4.8979782167 5.5683143056 5.4750190208 5.4750190208 5.3738143976 5.3738143976 5.3738143976 
5.2659633393 5.2659633393 5.2659633393 5.2659633393 5.1534979207 5.1534979207 5.1534979207 5.1534979207 5.1534979207 
5.0390747672 5.0390747672 5.0390747672 5.0390747672 5.0390747672 5.0390747672 4.9256388911 4.9256388911 4.9256388911 
4.9256388911 4.9256388911 4.9256388911 4.9256388911 4.8159880991 4.8159880991 4.8159880991 4.8159880991 4.8159880991 
4.8159880991 4.8159880991 4.8159880991 4.6087898617 4.6087898617 4.4991390697 4.6087898617 4.4991390697 4.3857031936 
4.6087898617 4.4991390697 4.3857031936 4.2712800401 4.6087898617 4.4991390697 4.3857031936 4.2712800401 4.1588146215 
4.6087898617 4.4991390697 4.3857031936 4.2712800401 4.1588146215 4.0509635631 4.6087898617 4.4991390697 4.3857031936 
4.2712800401 4.1588146215 4.0509635631 3.94975894 4.6087898617 4.4991390697 4.3857031936 4.2712800401 4.1588146215 
4.0509635631 3.94975894 3.8564636551 4.526799744 4.4046155105 4.426884955 4.2807094886 4.2918546451 4.3052269283 
4.1588146215 4.1588146215 4.1588146215 4.1588146215 4.042318168 4.0321740035 4.0201070968 4.0055183285 3.9875336042 
3.9337570603 3.9151549899 3.8932795963 3.8672112905 3.8356650183 3.7967995342 3.8346145692 3.809500442 3.7803704271 
3.7462412737 3.7058097288 3.657329819 3.5984456061 3.7454049075 3.7156421835 3.6816134988 3.6424295543 3.5969754326 
3.5438565869 3.4813459737 3.4073543651 3.5642842451 3.4524645613 3.5233842518 3.3320300872 3.403123212 3.4773852225 
3.20576226 3.2746326772 3.348015857 3.4255060145 3.0774230472 3.1415926536 3.2112816139 3.2864685043 3.3668817272 
2.95115522 3.00855263 3.0719036933 3.1415926536 3.2178377658 3.3005964304 2.8307207459 2.8800620952 2.9351694502 
2.9967168029 3.0653475414 3.1415926536 3.225752376 2.718901062 2.7598010554 2.8058000847 2.8576792927 2.91630358 
2.9825888767 3.0574329311 3.1415926536 3.5642842451 3.5233842518 3.4524645613 3.4773852225 3.403123212 3.3320300872 
3.4255060145 3.348015857 3.2746326772 3.20576226 3.3668817272 3.2864685043 3.2112816139 3.1415926536 3.0774230472 
3.3005964304 3.2178377658 3.1415926536 3.0719036933 3.00855263 2.95115522 3.225752376 3.1415926536 3.0653475414 
2.9967168029 2.9351694502 2.8800620952 2.8307207459 3.1415926536 3.0574329311 2.9825888767 2.91630358 2.8576792927 
2.8058000847 2.7598010554 2.718901062 4.526799744 4.426884955 4.4046155105 4.3052269283 4.2918546451 4.2807094886 
4.1588146215 4.1588146215 4.1588146215 4.1588146215 3.9875336042 4.0055183285 4.0201070968 4.0321740035 4.042318168 
3.7967995342 3.8356650183 3.8672112905 3.8932795963 3.9151549899 3.9337570603 3.5984456061 3.657329819 3.7058097288 
3.7462412737 3.7803704271 3.809500442 3.8346145692 3.4073543651 3.4813459737 3.5438565869 3.5969754326 3.6424295543 
3.6816134988 3.7156421835 3.7454049075 4.7123889804 4.8004512023 4.6243267584 4.9155579264 4.7123889804 4.5092200343 
5.0674903122 4.8353719722 4.5894059886 4.3572876485 5.2659633393 5.0120975802 4.7123889804 4.4126803806 4.1588146215 
5.5125918794 5.2659633393 4.9155579264 4.5092200343 4.1588146215 3.9121860814 5.7885595667 5.6029703303 5.2659633393 
4.7123889804 4.1588146215 3.8218076305 3.6362183941 6.0560271438 5.9702140275 5.7885595667 5.2659633393 4.1588146215 
3.6362183941 3.4545639333 3.368750817 0.22715816343 0.49462574053 0.3129712797 0.77059342779 0.68021497688 0.49462574053 
1.0172219679 1.0172219679 1.0172219679 1.0172219679 1.2156949949 1.271087727 1.3676273807 1.5707963268 2.1243706857 
1.3676273807 1.447813335 1.5707963268 1.7739652728 2.1243706857 2.6469669131 1.4827341049 1.5707963268 1.6937793186 
1.8705049266 2.1243706857 2.4613776767 2.8286213739 1.5707963268 1.6588585487 1.7739652728 1.9258976586 2.1243706857 
2.3709992258 2.6469669131 2.9144344902 1.7563855631 1.8785697967 1.8563003522 2.0024758186 1.9913306621 1.9779583789 
2.1243706857 2.1243706857 2.1243706857 2.1243706857 2.2408671392 2.2510113037 2.2630782103 2.2776669786 2.295651703 
2.3494282469 2.3680303173 2.3899057108 2.4159740166 2.4475202889 2.486385773 2.448570738 2.4736848652 2.5028148801 
2.5369440334 2.5773755784 2.6258554882 2.6847397011 2.5377803997 2.5675431237 2.6015718084 2.6407557529 2.6862098746 
2.7393287203 2.8018393335 2.8758309421 1.6743954455 1.6743954455 1.7840462375 1.6743954455 1.7840462375 1.8974821136 
1.6743954455 1.7840462375 1.8974821136 2.0119052671 1.6743954455 1.7840462375 1.8974821136 2.0119052671 2.1243706857 
1.6743954455 1.7840462375 1.8974821136 2.0119052671 2.1243706857 2.232221744 1.6743954455 1.7840462375 1.8974821136 
2.0119052671 2.1243706857 2.232221744 2.3334263672 1.6743954455 1.7840462375 1.8974821136 2.0119052671 2.1243706857 
2.232221744 2.3334263672 2.426721652 1.4671972081 1.3575464161 1.4671972081 1.24411054 1.3575464161 1.4671972081 
1.1296873865 1.24411054 1.3575464161 1.4671972081 1.0172219679 1.1296873865 1.24411054 1.3575464161 1.4671972081 
0.90937090954 1.0172219679 1.1296873865 1.24411054 1.3575464161 1.4671972081 0.80816628637 0.90937090954 1.0172219679 
1.1296873865 1.24411054 1.3575464161 1.4671972081 0.71487100155 0.80816628637 0.90937090954 1.0172219679 1.1296873865 
1.24411054 1.3575464161 1.4671972081 0.60381225391 0.57404952988 0.69302191562 0.54002084522 0.66790778838 0.79216440667 
0.50083690068 0.63877777351 0.77356233629 0.90072551443 0.45538277901 0.60464862014 0.75168694275 0.89058134991 1.0172219679 
0.40226393329 0.56421707518 0.72561863695 0.87851444325 1.0172219679 1.139116835 0.33975332011 0.51573716537 0.69407236469 
0.86392567495 1.0172219679 1.1502619915 1.2630228569 0.26576171152 0.45685295248 0.6552068806 0.84594095064 1.0172219679 
1.1636342747 1.2852923014 1.3852070904 0.22715816343 0.3129712797 0.49462574053 0.49462574053 0.68021497688 0.77059342779 
1.0172219679 1.0172219679 1.0172219679 1.0172219679 2.1243706857 1.5707963268 1.3676273807 1.271087727 1.2156949949 
2.6469669131 2.1243706857 1.7739652728 1.5707963268 1.447813335 1.3676273807 2.8286213739 2.4613776767 2.1243706857 
1.8705049266 1.6937793186 1.5707963268 1.4827341049 2.9144344902 2.6469669131 2.3709992258 2.1243706857 1.9258976586 
1.7739652728 1.6588585487 1.5707963268 1.7563855631 1.8563003522 1.8785697967 1.9779583789 1.9913306621 2.0024758186 
2.1243706857 2.1243706857 2.1243706857 2.1243706857 2.295651703 2.2776669786 2.2630782103 2.2510113037 2.2408671392 
2.486385773 2.4475202889 2.4159740166 2.3899057108 2.3680303173 2.3494282469 2.6847397011 2.6258554882 2.5773755784 
2.5369440334 2.5028148801 2.4736848652 2.448570738 2.8758309421 2.8018393335 2.7393287203 2.6862098746 2.6407557529 
2.6015718084 2.5675431237 2.5377803997 5.8604937156 5.901393709 5.9723133995 5.9473927383 6.0216547488 6.0927478736 
5.9992719463 6.0767621038 6.1501452836 6.2190157008 6.0578962336 6.1383094565 6.2134963469 0 0.064169606361 
6.1241815303 6.206940195 6.2831853072 0.069688960264 0.13304002361 0.19043743361 6.1990255847 0 0.07624511221 
0.14487585072 0.20642320337 0.26153055843 0.3108719077 0 0.084159722458 0.15900377685 0.22528907359 0.28391336087 
0.3357925689 0.38179159818 0.42269159155 5.8604937156 5.9723133995 5.901393709 6.0927478736 6.0216547488 5.9473927383 
6.2190157008 6.1501452836 6.0767621038 5.9992719463 0.064169606361 0 6.2134963469 6.1383094565 6.0578962336 
0.19043743361 0.13304002361 0.069688960264 6.2831853072 6.206940195 6.1241815303 0.3108719077 0.26153055843 0.20642320337 
0.14487585072 0.07624511221 6.2831853072 6.1990255847 0.42269159155 0.38179159818 0.3357925689 0.28391336087 0.22528907359 
0.15900377685 0.084159722458 0 5.6793730533 5.7091357773 5.5901633916 5.743164462 5.6152775188 5.4910209005 
5.7823484065 5.6444075337 5.5096229709 5.3824597928 5.8278025282 5.678536687 5.5314983644 5.3926039573 5.2659633393 
5.8809213739 5.718968232 5.5575666702 5.4046708639 5.2659633393 5.1440684722 5.9434319871 5.7674481418 5.5891129425 
5.4192596322 5.2659633393 5.1329233157 5.0201624502 6.0174235957 5.8263323547 5.6279784266 5.4372443565 5.2659633393 
5.1195510325 4.9978930058 4.8979782167 1.3852070904 1.2852923014 1.2630228569 1.1636342747 1.1502619915 1.139116835 
1.0172219679 1.0172219679 1.0172219679 1.0172219679 0.84594095064 0.86392567495 0.87851444325 0.89058134991 0.90072551443 
0.6552068806 0.69407236469 0.72561863695 0.75168694275 0.77356233629 0.79216440667 0.45685295248 0.51573716537 0.56421707518 
0.60464862014 0.63877777351 0.66790778838 0.69302191562 0.26576171152 0.33975332011 0.40226393329 0.45538277901 0.50083690068 
0.54002084522 0.57404952988 0.60381225391 
