# vtk DataFile Version 4.1
vtk output
ASCII
DATASET POLYDATA
POINTS 1002 float
46.0531 96.6034 96.9154 49.2557 98.1869 103.944 43.9046 101.609 92.8913 
43.9308 105.227 100.874 53.6808 102.325 99.5655 50.6805 105.275 96.3737 
41.6576 92.3176 101.204 37.9515 98.8244 99.4026 53.6144 105.954 104.2 
49.6308 99.2182 89.8242 42.5043 100.702 105.281 42.7679 94.5615 94.5206 
45.8451 97.0843 97.4491 45.7217 97.5511 98.0603 45.6699 97.9686 98.8673 
45.7941 98.2994 99.823 46.2592 98.4238 100.801 46.8802 98.4324 101.683 
47.5653 98.379 102.375 48.2809 98.2494 102.894 48.8963 98.1334 103.382 
46.4024 97.2343 96.9195 46.931 97.8067 96.9674 47.5577 98.3656 97.1006 
48.2346 99.03 97.3391 49.1613 99.553 97.6497 50.2004 100.01 98.0668 
51.0937 100.656 98.5847 51.9268 101.35 99.0555 52.7798 101.932 99.3881 
45.6394 96.2189 97.2664 45.1634 95.8319 97.7553 44.5928 95.3675 98.4207 
44.2297 94.4504 99.0356 44.4699 92.9854 99.5431 44.6396 91.8624 100.143 
44.0959 91.5985 100.59 43.1709 91.7774 100.73 42.3676 92.0211 100.916 
46.4758 96.5209 96.3054 46.823 96.5159 95.5433 47.146 96.5564 94.7691 
47.5544 96.681 94.0191 48.093 96.9019 93.2347 48.664 97.1361 92.3825 
49.2011 97.3871 91.561 49.5178 97.8592 90.9052 49.6053 98.5241 90.3463 
46.0895 95.8419 96.5603 46.1535 95.0542 96.1715 46.1294 94.1816 95.7322 
46.0482 93.2725 95.3317 45.6613 92.8049 94.9699 44.8994 92.8551 94.5834 
44.1889 93.1711 94.402 43.65 93.6061 94.3021 43.1683 94.1344 94.3953 
49.7717 98.6875 103.692 50.48 99.1195 103.435 51.2543 99.5539 103.066 
51.9536 100.019 102.531 52.5088 100.531 101.979 52.9762 101.071 101.513 
53.3044 101.589 101.057 53.5278 101.933 100.574 53.6667 102.151 100.077 
48.6767 97.5306 103.817 48.0375 96.882 103.632 47.2442 96.3675 103.419 
46.2155 95.9365 103.217 44.9089 95.5433 102.823 43.7166 95.001 102.24 
43.0151 94.2348 101.799 42.5729 93.4414 101.578 42.1371 92.8108 101.394 
49.7551 98.7839 104.371 50.3053 99.5003 104.64 50.8206 100.329 104.749 
51.2806 101.218 104.702 51.9275 102.189 104.592 52.6473 103.156 104.43 
53.2699 104.085 104.524 53.5955 104.852 104.645 53.6851 105.469 104.527 
49.0544 98.0497 104.522 48.6435 98.1651 105.027 48.0265 98.4422 105.26 
47.294 98.8316 105.313 46.5114 99.2489 105.37 45.7008 99.6058 105.373 
44.8193 99.8717 105.373 43.9422 100.162 105.355 43.1905 100.462 105.295 
43.8562 101.948 93.5837 43.7783 102.331 94.3338 43.6763 102.78 95.1216 
43.5867 103.266 95.9429 43.5344 103.734 96.776 43.5168 104.183 97.6246 
43.5699 104.55 98.4969 43.7125 104.776 99.3673 43.8513 104.982 100.178 
44.3847 101.992 92.7342 44.9182 102.386 92.656 45.5218 102.802 92.6998 
46.1245 103.278 92.8494 46.7653 103.745 93.1432 47.5268 104.174 93.6145 
48.3677 104.555 94.2383 49.1919 104.849 94.9507 49.9607 105.088 95.6795 
43.3461 101.45 93.4875 42.6916 101.275 94.1285 41.9995 101.034 94.8145 
41.2918 100.752 95.5117 40.5977 100.408 96.2306 40.0089 100.036 97.0294 
39.5036 99.7034 97.7984 38.9 99.4368 98.381 38.3664 99.1289 98.9057 
44.2509 101.493 92.0815 44.646 101.347 91.2229 45.0209 101.202 90.2915 
45.3698 101.049 89.386 45.9392 100.901 88.8125 46.8474 100.738 88.7369 
47.8039 100.508 88.9546 48.5379 100.154 89.2258 49.1354 99.715 89.5007 
43.6101 101.158 92.6169 43.2939 100.638 92.4155 43.0132 99.9837 92.3235 
42.8114 99.1236 92.4142 42.6686 98.119 92.6877 42.5926 97.1493 93.0368 
42.5409 96.2757 93.3517 42.5431 95.5067 93.662 42.6409 94.9209 94.0531 
44.5589 105.462 100.447 45.2701 105.677 99.937 46.0558 105.864 99.3722 
46.8304 106.038 98.7595 47.5816 106.182 98.1142 48.3832 106.182 97.5865 
49.2078 106.007 97.2288 49.8782 105.792 96.927 50.3337 105.555 96.6376 
43.2555 104.81 100.836 42.5162 104.33 100.767 41.7643 103.747 100.704 
41.0111 103.097 100.574 40.1714 102.506 100.356 39.3792 101.884 100.142 
38.8028 101.147 99.9464 38.3502 100.385 99.7129 38.0166 99.6187 99.4947 
44.4221 105.602 101.27 45.1228 105.888 101.665 46.1313 105.976 102.06 
47.2815 106.031 102.415 48.4604 106.113 102.708 49.6062 106.207 102.998 
50.7589 106.319 103.373 51.9244 106.356 103.714 52.9063 106.218 103.983 
43.5651 105.21 101.498 43.2114 105.055 102.153 42.8685 104.796 102.913 
42.5264 104.492 103.746 42.2324 104.107 104.459 42.0861 103.511 104.923 
42.0326 102.785 105.272 42.129 102.038 105.442 42.3002 101.332 105.422 
54.1439 102.637 99.3226 54.53 102.868 98.9509 54.7904 103.111 98.451 
54.8124 103.537 97.9477 54.5071 104.209 97.596 53.8709 104.788 97.3494 
53.0349 105.039 97.1308 52.1397 105.104 96.9053 51.346 105.18 96.6558 
54.7185 102.5 100.011 55.9105 102.564 100.418 57.0538 102.639 100.813 
57.575 103.104 101.363 57.4618 103.863 102.128 57.0136 104.546 102.83 
56.2083 104.997 103.172 55.2784 105.416 103.558 54.4158 105.765 103.978 
53.0649 102.201 98.8946 52.4656 101.828 97.9721 51.896 101.397 96.7897 
51.3555 101.046 95.4954 50.8932 100.699 94.2339 50.5904 100.264 93.032 
50.4769 99.7985 91.841 50.3892 99.4311 90.8037 50.1181 99.2438 90.1295 
51.2378 105.584 97.2102 51.8931 105.876 98.0355 52.6673 106.204 98.8195 
53.3801 106.503 99.6245 53.9528 106.652 100.486 54.3665 106.717 101.453 
54.5484 106.774 102.387 54.3224 106.613 103.12 53.959 106.298 103.7 
50.5327 104.84 95.6687 50.3712 104.349 94.8591 50.2308 103.847 93.915 
50.1287 103.296 92.8558 49.9954 102.678 91.8033 49.8975 102.036 90.8565 
50.0051 101.377 90.002 50.0695 100.664 89.525 49.9243 99.9297 89.5249 
40.8602 92.361 101.287 39.9583 92.5288 101.358 39.1111 92.7816 101.384 
38.498 93.2109 101.247 38.1295 94.0394 100.924 37.9811 95.1799 100.626 
37.9493 96.2951 100.396 37.9121 97.2593 100.1 37.892 98.0868 99.7419 
41.2854 92.9461 101.69 40.9364 93.6874 102.192 40.6843 94.5549 102.656 
40.5636 95.4536 103.2 40.6502 96.3415 103.771 40.9236 97.3309 104.194 
41.281 98.3405 104.463 41.6866 99.2195 104.728 42.1093 99.9771 105.011 
41.5612 91.653 100.821 41.4007 90.9767 100.425 41.2211 90.6323 99.7613 
41.1762 90.6395 98.833 41.2694 90.942 97.9426 41.3494 91.7716 97.4455 
41.5618 93.0171 97.1125 42.0601 94.0441 96.478 42.5128 94.4014 95.4631 
37.6553 99.0036 99.9914 37.6643 99.1497 100.812 37.8781 99.3289 101.751 
38.1271 99.5266 102.661 38.4227 99.7119 103.503 38.8762 99.8919 104.239 
39.5694 100.07 104.754 40.4955 100.26 105.026 41.5211 100.479 105.165 
38.3141 98.1515 99.066 38.6065 97.4743 98.5878 38.7419 96.8566 97.9359 
38.9833 96.229 97.2883 39.4384 95.6197 96.7822 39.9599 95.241 96.3601 
40.6329 94.9712 95.9592 41.4874 94.8355 95.6012 42.2237 94.7262 95.1149 
52.7695 105.699 104.405 51.6776 105.269 104.443 50.4279 104.672 104.62 
49.1992 104.063 105.029 47.9443 103.6 105.469 46.5724 103.148 105.744 
45.328 102.541 105.841 44.2876 101.874 105.75 43.3524 101.262 105.533 
48.8854 98.8521 90.0991 48.0607 98.414 90.3448 47.2951 97.7933 90.6123 
46.4896 97.0999 91.1185 45.6974 96.3822 91.6104 44.9794 95.6404 91.9473 
44.3118 94.9861 92.3396 43.6765 94.5901 92.8844 43.1795 94.4859 93.6132 
46.3123 97.7152 97.5313 46.9544 98.2501 97.7127 46.2802 98.1531 98.2916 
47.6598 98.8513 97.9425 47.0028 98.7033 98.5635 46.3273 98.543 99.1698 
48.6045 99.3908 98.2606 47.9776 99.1893 98.8444 47.34 98.9558 99.4632 
46.7331 98.7143 100.09 49.7827 99.793 98.6679 49.2302 99.5621 99.229 
48.6559 99.2423 99.7919 48.0523 98.9444 100.373 47.4236 98.7035 100.995 
50.8269 100.387 99.1586 50.4554 100.063 99.7101 49.9808 99.6721 100.236 
49.4124 99.2681 100.741 48.744 98.9805 101.26 48.0843 98.7265 101.855 
51.732 101.122 99.6113 51.4669 100.808 100.16 51.1386 100.356 100.656 
50.6577 99.8702 101.114 50.035 99.4615 101.573 49.3667 99.1042 102.096 
48.7394 98.7379 102.567 52.6833 101.722 99.91 52.4747 101.461 100.44 
52.2191 101.017 100.918 51.8609 100.48 101.359 51.3476 99.993 101.816 
50.7203 99.5451 102.348 50.0182 99.1195 102.835 49.3584 98.6753 103.138 
46.8305 97.2069 96.2674 47.2378 97.2041 95.5254 47.3853 97.7968 96.3063 
47.646 97.2714 94.7313 47.8037 97.887 95.5727 47.9858 98.4826 96.4336 
48.1008 97.4665 93.8985 48.2406 98.0357 94.7327 48.3777 98.6813 95.6526 
48.6668 99.2157 96.6346 48.5884 97.7426 93.0477 48.6931 98.2516 93.8651 
48.8056 98.8601 94.8208 49.0376 99.4508 95.8621 49.5762 99.7817 96.9716 
49.1548 97.9446 92.2095 49.1568 98.4986 93.0513 49.2662 99.032 94.0212 
49.4834 99.6042 95.1211 49.9536 100.022 96.3042 50.558 100.319 97.4935 
49.7193 98.1552 91.409 49.6903 98.7061 92.25 49.721 99.2612 93.2555 
49.9387 99.7744 94.3593 50.3651 100.193 95.594 50.9047 100.558 96.8766 
51.4295 100.971 98.0673 50.0342 98.6096 90.7182 50.166 98.9654 91.471 
50.1476 99.505 92.5262 50.2876 100.034 93.6497 50.673 100.435 94.8501 
51.1922 100.764 96.1616 51.7242 101.174 97.4504 52.2481 101.63 98.5487 
50.3374 100.027 90.0693 50.4087 100.857 90.3839 50.5802 100.248 91.0219 
50.403 101.673 91.0854 50.7468 101.133 91.5313 50.796 100.569 92.2611 
50.5303 102.419 91.963 50.984 102.015 92.2511 51.1986 101.407 92.8294 
51.1167 100.948 93.5888 50.7166 103.083 92.9972 51.2353 102.795 93.2319 
51.5534 102.277 93.6496 51.6489 101.714 94.298 51.5363 101.347 94.9542 
50.8412 103.696 94.0614 51.4575 103.486 94.3199 51.8646 103.082 94.7252 
52.1082 102.539 95.2029 52.1753 102.089 95.7738 52.0776 101.735 96.3207 
50.9885 104.258 95.0289 51.6906 104.146 95.2688 52.2844 103.862 95.6839 
52.6806 103.344 96.123 52.9074 102.812 96.5504 52.9102 102.437 97.0712 
52.7309 102.129 97.5682 51.1829 104.748 95.9026 51.9324 104.702 96.1367 
52.7319 104.56 96.4316 53.36 104.134 96.8085 53.7751 103.488 97.1422 
53.8924 102.989 97.5878 53.7382 102.706 98.1218 53.4287 102.472 98.5731 
55.2505 102.803 99.737 55.6062 103.133 99.3374 56.5212 102.917 100.118 
55.6631 103.573 98.8526 56.5877 103.53 99.7453 57.4113 103.291 100.503 
55.4491 104.192 98.4076 56.2884 104.198 99.3518 57.1051 104.169 100.234 
57.6147 104.005 101.134 54.9202 104.897 98.1136 55.7723 104.883 99.0385 
56.5292 104.901 99.9845 57.1539 104.888 100.931 57.3766 104.794 101.995 
54.0542 105.284 97.9387 55.0041 105.411 98.7866 55.7823 105.426 99.7462 
56.4179 105.456 100.689 56.8097 105.494 101.679 56.7361 105.316 102.598 
[...]
POINT_DATA 1002
SCALARS _paraPhi double
LOOKUP_TABLE default
6.2831853072 3.1415926536 6.2831853072 3.1415926536 4.7123889804 4.7123889804 1.5707963268 1.5707963268 3.6951670125 
5.7296109483 2.5880182947 0.5535743589 6.2831853072 6.2831853072 6.2831853072 6.2831853072 3.1415926536 3.1415926536 
3.1415926536 3.1415926536 3.1415926536 6.1053039672 5.898798347 5.6768734901 5.4599499503 5.2659633393 5.1032165617 
4.9713148346 4.8656852733 4.7809517865 0.17788134 0.38438696014 0.60631181711 0.82323535693 1.0172219679 1.1799687454 
1.3118704726 1.4175000338 1.5022335207 6.1892828907 6.1070320098 6.035312792 5.9728339911 5.9183214791 5.8706119594 
5.8286879411 5.7916808611 5.7588591896 0.093902416448 0.17615329733 0.2478725152 0.31035131605 0.36486382811 0.41257334776 
0.45449736604 0.4915044461 0.52432611754 3.3194739936 3.5259796137 3.7479044707 3.9648280105 4.1588146215 4.321561399 
4.4534631262 4.5590926874 4.6438261743 2.9637113136 2.7572056934 2.5352808365 2.3183572967 2.1243706857 1.9616239082 
1.829722181 1.7240926197 1.6393591329 3.23549507 3.3177459509 3.3894651688 3.4519439696 3.5064564817 3.5541660013 
3.5960900196 3.6330970997 3.6659187711 3.0476902371 2.9654393563 2.8937201384 2.8312413375 2.7767288255 2.7290193058 
2.6870952876 2.6500882075 2.617266536 6.2831853072 6.2831853072 6.2831853072 6.2831853072 3.1415926536 3.1415926536 
3.1415926536 3.1415926536 3.1415926536 6.1053039672 5.898798347 5.6768734901 5.4599499503 5.2659633393 5.1032165617 
4.9713148346 4.8656852733 4.7809517865 0.17788134 0.38438696014 0.60631181711 0.82323535693 1.0172219679 1.1799687454 
1.3118704726 1.4175000338 1.5022335207 6.1892828907 6.1070320098 6.035312792 5.9728339911 5.9183214791 5.8706119594 
5.8286879411 5.7916808611 5.7588591896 0.093902416448 0.17615329733 0.2478725152 0.31035131605 0.36486382811 0.41257334776 
0.45449736604 0.4915044461 0.52432611754 3.3194739936 3.5259796137 3.7479044707 3.9648280105 4.1588146215 4.321561399 
4.4534631262 4.5590926874 4.6438261743 2.9637113136 2.7572056934 2.5352808365 2.3183572967 2.1243706857 1.9616239082 
1.829722181 1.7240926197 1.6393591329 3.23549507 3.3177459509 3.3894651688 3.4519439696 3.5064564817 3.5541660013 
3.5960900196 3.6330970997 3.6659187711 3.0476902371 2.9654393563 2.8937201384 2.8312413375 2.7767288255 2.7290193058 
2.6870952876 2.6500882075 2.617266536 4.7123889804 4.7123889804 4.7123889804 4.7123889804 4.7123889804 4.7123889804 
4.7123889804 4.7123889804 4.7123889804 4.6087898617 4.4991390697 4.3857031936 4.2712800401 4.1588146215 4.0509635631 
3.94975894 3.8564636551 3.7716124825 4.8159880991 4.9256388911 5.0390747672 5.1534979207 5.2659633393 5.3738143976 
5.4750190208 5.5683143056 5.6531654782 4.6087898617 4.4991390697 4.3857031936 4.2712800401 4.1588146215 4.0509635631 
3.94975894 3.8564636551 3.7716124825 4.8159880991 4.9256388911 5.0390747672 5.1534979207 5.2659633393 5.3738143976 
5.4750190208 5.5683143056 5.6531654782 1.5707963268 1.5707963268 1.5707963268 1.5707963268 1.5707963268 1.5707963268 
1.5707963268 1.5707963268 1.5707963268 1.6743954455 1.7840462375 1.8974821136 2.0119052671 2.1243706857 2.232221744 
2.3334263672 2.426721652 2.5115728246 1.4671972081 1.3575464161 1.24411054 1.1296873865 1.0172219679 0.90937090954 
0.80816628637 0.71487100155 0.63001982895 1.6743954455 1.7840462375 1.8974821136 2.0119052671 2.1243706857 2.232221744 
2.3334263672 2.426721652 2.5115728246 1.4671972081 1.3575464161 1.24411054 1.1296873865 1.0172219679 0.90937090954 
0.80816628637 0.71487100155 0.63001982895 3.6007720849 3.4966939854 3.3839471039 3.2645756454 3.1415926536 3.0186096618 
2.8992382033 2.7864913217 2.6824132222 5.8240058758 5.9280839753 6.0408308569 6.1602023154 6.2831853072 0.12298299178 
0.2423544503 0.35510133185 0.45917943135 6.0560271438 5.7885595667 5.9702140275 5.5125918794 5.6029703303 5.7885595667 
5.2659633393 5.2659633393 5.2659633393 5.2659633393 5.0674903122 5.0120975802 4.9155579264 4.7123889804 4.1588146215 
4.9155579264 4.8353719722 4.7123889804 4.5092200343 4.1588146215 3.6362183941 4.8004512023 4.7123889804 4.5894059886 
4.4126803806 4.1588146215 3.8218076305 3.4545639333 4.7123889804 4.6243267584 4.5092200343 4.3572876485 4.1588146215 
3.9121860814 3.6362183941 3.368750817 6.0174235957 5.9434319871 5.8263323547 5.8809213739 5.7674481418 5.6279784266 
5.8278025282 5.718968232 5.5891129425 5.4372443565 5.7823484065 5.678536687 5.5575666702 5.4192596322 5.2659633393 
5.743164462 5.6444075337 5.5314983644 5.4046708639 5.2659633393 5.1195510325 5.7091357773 5.6152775188 5.5096229709 
5.3926039573 5.2659633393 5.1329233157 4.9978930058 5.6793730533 5.5901633916 5.4910209005 5.3824597928 5.2659633393 
5.1440684722 5.0201624502 4.8979782167 5.5683143056 5.4750190208 5.4750190208 5.3738143976 5.3738143976 5.3738143976 
5.2659633393 5.2659633393 5.2659633393 5.2659633393 5.1534979207 5.1534979207 5.1534979207 5.1534979207 5.1534979207 
5.0390747672 5.0390747672 5.0390747672 5.0390747672 5.0390747672 5.0390747672 4.9256388911 4.9256388911 4.9256388911 
4.9256388911 4.9256388911 4.9256388911 4.9256388911 4.8159880991 4.8159880991 4.8159880991 4.8159880991 4.8159880991 
4.8159880991 4.8159880991 4.8159880991 4.6087898617 4.6087898617 4.4991390697 4.6087898617 4.4991390697 4.3857031936 
4.6087898617 4.4991390697 4.3857031936 4.2712800401 4.6087898617 4.4991390697 4.3857031936 4.2712800401 4.1588146215 
4.6087898617 4.4991390697 4.3857031936 4.2712800401 4.1588146215 4.0509635631 4.6087898617 4.4991390697 4.3857031936 
4.2712800401 4.1588146215 4.0509635631 3.94975894 4.6087898617 4.4991390697 4.3857031936 4.2712800401 4.1588146215 
4.0509635631 3.94975894 3.8564636551 4.526799744 4.4046155105 4.426884955 4.2807094886 4.2918546451 4.3052269283 
4.1588146215 4.1588146215 4.1588146215 4.1588146215 4.042318168 4.0321740035 4.0201070968 4.0055183285 3.9875336042 
3.9337570603 3.9151549899 3.8932795963 3.8672112905 3.8356650183 3.7967995342 3.8346145692 3.809500442 3.7803704271 
3.7462412737 3.7058097288 3.657329819 3.5984456061 3.7454049075 3.7156421835 3.6816134988 3.6424295543 3.5969754326 
3.5438565869 3.4813459737 3.4073543651 3.5642842451 3.4524645613 3.5233842518 3.3320300872 3.403123212 3.4773852225 
3.20576226 3.2746326772 3.348015857 3.4255060145 3.0774230472 3.1415926536 3.2112816139 3.2864685043 3.3668817272 
2.95115522 3.00855263 3.0719036933 3.1415926536 3.2178377658 3.3005964304 2.8307207459 2.8800620952 2.9351694502 
2.9967168029 3.0653475414 3.1415926536 3.225752376 2.718901062 2.7598010554 2.8058000847 2.8576792927 2.91630358 
2.9825888767 3.0574329311 3.1415926536 3.5642842451 3.5233842518 3.4524645613 3.4773852225 3.403123212 3.3320300872 
3.4255060145 3.348015857 3.2746326772 3.20576226 3.3668817272 3.2864685043 3.2112816139 3.1415926536 3.0774230472 
3.3005964304 3.2178377658 3.1415926536 3.0719036933 3.00855263 2.95115522 3.225752376 3.1415926536 3.0653475414 
2.9967168029 2.9351694502 2.8800620952 2.8307207459 3.1415926536 3.0574329311 2.9825888767 2.91630358 2.8576792927 
2.8058000847 2.7598010554 2.718901062 4.526799744 4.426884955 4.4046155105 4.3052269283 4.2918546451 4.2807094886 
4.1588146215 4.1588146215 4.1588146215 4.1588146215 3.9875336042 4.0055183285 4.0201070968 4.0321740035 4.042318168 
3.7967995342 3.8356650183 3.8672112905 3.8932795963 3.9151549899 3.9337570603 3.5984456061 3.657329819 3.7058097288 
3.7462412737 3.7803704271 3.809500442 3.8346145692 3.4073543651 3.4813459737 3.5438565869 3.5969754326 3.6424295543 
3.6816134988 3.7156421835 3.7454049075 4.7123889804 4.8004512023 4.6243267584 4.9155579264 4.7123889804 4.5092200343 
5.0674903122 4.8353719722 4.5894059886 4.3572876485 5.2659633393 5.0120975802 4.7123889804 4.4126803806 4.1588146215 
5.5125918794 5.2659633393 4.9155579264 4.5092200343 4.1588146215 3.9121860814 5.7885595667 5.6029703303 5.2659633393 
4.7123889804 4.1588146215 3.8218076305 3.6362183941 6.0560271438 5.9702140275 5.7885595667 5.2659633393 4.1588146215 
3.6362183941 3.4545639333 3.368750817 0.22715816343 0.49462574053 0.3129712797 0.77059342779 0.68021497688 0.49462574053 
1.0172219679 1.0172219679 1.0172219679 1.0172219679 1.2156949949 1.271087727 1.3676273807 1.5707963268 2.1243706857 
1.3676273807 1.447813335 1.5707963268 1.7739652728 2.1243706857 2.6469669131 1.4827341049 1.5707963268 1.6937793186 
1.8705049266 2.1243706857 2.4613776767 2.8286213739 1.5707963268 1.6588585487 1.7739652728 1.9258976586 2.1243706857 
2.3709992258 2.6469669131 2.9144344902 1.7563855631 1.8785697967 1.8563003522 2.0024758186 1.9913306621 1.9779583789 
2.1243706857 2.1243706857 2.1243706857 2.1243706857 2.2408671392 2.2510113037 2.2630782103 2.2776669786 2.295651703 
2.3494282469 2.3680303173 2.3899057108 2.4159740166 2.4475202889 2.486385773 2.448570738 2.4736848652 2.5028148801 
2.5369440334 2.5773755784 2.6258554882 2.6847397011 2.5377803997 2.5675431237 2.6015718084 2.6407557529 2.6862098746 
2.7393287203 2.8018393335 2.8758309421 1.6743954455 1.6743954455 1.7840462375 1.6743954455 1.7840462375 1.8974821136 
1.6743954455 1.7840462375 1.8974821136 2.0119052671 1.6743954455 1.7840462375 1.8974821136 2.0119052671 2.1243706857 
1.6743954455 1.7840462375 1.8974821136 2.0119052671 2.1243706857 2.232221744 1.6743954455 1.7840462375 1.8974821136 
2.0119052671 2.1243706857 2.232221744 2.3334263672 1.6743954455 1.7840462375 1.8974821136 2.0119052671 2.1243706857 
2.232221744 2.3334263672 2.426721652 1.4671972081 1.3575464161 1.4671972081 1.24411054 1.3575464161 1.4671972081 
1.1296873865 1.24411054 1.3575464161 1.4671972081 1.0172219679 1.1296873865 1.24411054 1.3575464161 1.4671972081 
0.90937090954 1.0172219679 1.1296873865 1.24411054 1.3575464161 1.4671972081 0.80816628637 0.90937090954 1.0172219679 
1.1296873865 1.24411054 1.3575464161 1.4671972081 0.71487100155 0.80816628637 0.90937090954 1.0172219679 1.1296873865 
1.24411054 1.3575464161 1.4671972081 0.60381225391 0.57404952988 0.69302191562 0.54002084522 0.66790778838 0.79216440667 
0.50083690068 0.63877777351 0.77356233629 0.90072551443 0.45538277901 0.60464862014 0.75168694275 0.89058134991 1.0172219679 
0.40226393329 0.56421707518 0.72561863695 0.87851444325 1.0172219679 1.139116835 0.33975332011 0.51573716537 0.69407236469 
0.86392567495 1.0172219679 1.1502619915 1.2630228569 0.26576171152 0.45685295248 0.6552068806 0.84594095064 1.0172219679 
1.1636342747 1.2852923014 1.3852070904 0.22715816343 0.3129712797 0.49462574053 0.49462574053 0.68021497688 0.77059342779 
1.0172219679 1.0172219679 1.0172219679 1.0172219679 2.1243706857 1.5707963268 1.3676273807 1.271087727 1.2156949949 
2.6469669131 2.1243706857 1.7739652728 1.5707963268 1.447813335 1.3676273807 2.8286213739 2.4613776767 2.1243706857 
1.8705049266 1.6937793186 1.5707963268 1.4827341049 2.9144344902 2.6469669131 2.3709992258 2.1243706857 1.9258976586 
1.7739652728 1.6588585487 1.5707963268 1.7563855631 1.8563003522 1.8785697967 1.9779583789 1.9913306621 2.0024758186 
2.1243706857 2.1243706857 2.1243706857 2.1243706857 2.295651703 2.2776669786 2.2630782103 2.2510113037 2.2408671392 
2.486385773 2.4475202889 2.4159740166 2.3899057108 2.3680303173 2.3494282469 2.6847397011 2.6258554882 2.5773755784 
2.5369440334 2.5028148801 2.4736848652 2.448570738 2.8758309421 2.8018393335 2.7393287203 2.6862098746 2.6407557529 
2.6015718084 2.5675431237 2.5377803997 5.8604937156 5.901393709 5.9723133995 5.9473927383 6.0216547488 6.0927478736 
5.9992719463 6.0767621038 6.1501452836 6.2190157008 6.0578962336 6.1383094565 6.2134963469 0 0.064169606361 
6.1241815303 6.206940195 6.2831853072 0.069688960264 0.13304002361 0.19043743361 6.1990255847 0 0.07624511221 
0.14487585072 0.20642320337 0.26153055843 0.3108719077 0 0.084159722458 0.15900377685 0.22528907359 0.28391336087 
0.3357925689 0.38179159818 0.42269159155 5.8604937156 5.9723133995 5.901393709 6.0927478736 6.0216547488 5.9473927383 
6.2190157008 6.1501452836 6.0767621038 5.9992719463 0.064169606361 0 6.2134963469 6.1383094565 6.0578962336 
0.19043743361 0.13304002361 0.069688960264 6.2831853072 6.206940195 6.1241815303 0.3108719077 0.26153055843 0.20642320337 
0.14487585072 0.07624511221 6.2831853072 6.1990255847 0.42269159155 0.38179159818 0.3357925689 0.28391336087 0.22528907359 
0.15900377685 0.084159722458 0 5.6793730533 5.7091357773 5.5901633916 5.743164462 5.6152775188 5.4910209005 
5.7823484065 5.6444075337 5.5096229709 5.3824597928 5.8278025282 5.678536687 5.5314983644 5.3926039573 5.2659633393 
5.8809213739 5.718968232 5.5575666702 5.4046708639 5.2659633393 5.1440684722 5.9434319871 5.7674481418 5.5891129425 
5.4192596322 5.2659633393 5.1329233157 5.0201624502 6.0174235957 5.8263323547 5.6279784266 5.4372443565 5.2659633393 
5.1195510325 4.9978930058 4.8979782167 1.3852070904 1.2852923014 1.2630228569 1.1636342747 1.1502619915 1.139116835 
1.0172219679 1.0172219679 1.0172219679 1.0172219679 0.84594095064 0.86392567495 0.87851444325 0.89058134991 0.90072551443 
0.6552068806 0.69407236469 0.72561863695 0.75168694275 0.77356233629 0.79216440667 0.45685295248 0.51573716537 0.56421707518 
0.60464862014 0.63877777351 0.66790778838 0.69302191562 0.26576171152 0.33975332011 0.40226393329 0.45538277901 0.50083690068 
0.54002084522 0.57404952988 0.60381225391 
