# vtk DataFile Version 4.1
vtk output
ASCII
DATASET POLYDATA
POINTS 1002 float
46.7317 95.735 95.8227 48.7124 97.0734 104.808 44.7872 103.002 92.3276 
45.2367 106.572 101.522 51.4527 100.993 99.9188 50.9531 105.552 96.7151 
41.1376 96.4523 101.91 39.9612 101.702 99.7083 52.4489 104.464 105.237 
49.1742 99.3602 89.9383 43.6328 102.013 106.772 43.1924 96.8693 92.7474 
46.6773 96.3193 96.6231 46.5645 96.9668 97.495 46.4436 97.5675 98.419 
46.3309 98.0709 99.5191 46.3614 98.3954 100.794 46.715 98.3594 101.97 
47.3277 97.9721 102.792 47.962 97.489 103.386 48.4374 97.1558 104.062 
47.0286 96.2861 96.0286 47.3709 96.8714 96.3316 47.6874 97.5767 96.6677 
47.9967 98.363 97.0321 48.4366 99.0487 97.5262 49.0197 99.5727 98.1577 
49.67 99.9786 98.7708 50.3176 100.332 99.2657 50.9196 100.669 99.6376 
46.453 95.5541 96.1523 46.117 95.4605 96.5496 45.6038 95.5456 97.004 
45.0134 95.7289 97.6026 44.4351 95.8974 98.3631 43.7274 96.0401 99.2085 
42.9623 96.1151 100.055 42.2772 96.1188 100.808 41.6557 96.2636 101.416 
46.9455 95.5376 95.1888 47.2554 95.3937 94.6448 47.6508 95.395 94.0925 
48.1065 95.5619 93.4283 48.5563 95.9227 92.7194 48.8975 96.4489 92.044 
49.0954 97.0907 91.3612 49.2019 97.8527 90.7412 49.2207 98.6615 90.296 
46.5943 94.9839 95.2847 46.4514 94.0736 94.8139 46.2128 93.1346 94.4578 
45.7822 92.6932 94.1524 45.1526 92.9985 93.7236 44.5834 93.7514 93.1897 
44.1171 94.6167 92.8982 43.7337 95.5036 92.8088 43.438 96.2655 92.7545 
49.3047 97.3022 104.425 49.9414 97.6058 103.985 50.5196 97.9153 103.552 
50.9397 98.322 103.076 51.1936 98.8941 102.647 51.3681 99.4502 102.218 
51.442 99.9597 101.666 51.4592 100.394 101.06 51.452 100.741 100.486 
47.9639 97.0316 104.637 47.1177 97.087 104.434 46.2012 97.0516 104.312 
45.2924 96.7954 104.229 44.4735 96.4544 104.01 43.7064 96.1733 103.691 
42.8918 96.0385 103.329 42.1327 96.0545 102.903 41.5611 96.2132 102.421 
49.2768 97.3381 105.228 49.9236 97.7793 105.507 50.578 98.4009 105.641 
51.0643 99.2184 105.683 51.4082 100.174 105.652 51.7498 101.145 105.601 
52.116 102.036 105.667 52.4093 102.957 105.69 52.5027 103.805 105.512 
48.3727 97.2899 105.309 47.899 97.8305 105.577 47.329 98.4735 105.786 
46.7446 98.9411 106.216 46.1923 99.3428 106.708 45.6357 99.8314 107.001 
45.0724 100.436 107.114 44.5205 101.052 107.126 44.0199 101.584 107.021 
44.7888 103.363 93.1798 44.7846 103.756 94.1019 44.7953 104.185 95.1075 
44.8164 104.645 96.1387 44.8114 105.144 97.1178 44.847 105.636 98.0739 
44.945 106.034 99.0071 45.0041 106.322 99.8951 45.0685 106.513 100.744 
45.1928 103.304 92.3579 45.6428 103.638 92.483 46.1472 103.997 92.7183 
46.7418 104.36 93.0966 47.4306 104.723 93.5995 48.1503 105.024 94.1903 
48.8878 105.214 94.8968 49.6362 105.372 95.6025 50.3335 105.491 96.1971 
44.3922 102.931 92.9 43.953 102.874 93.5595 43.4529 102.812 94.272 
42.9468 102.701 95.0916 42.4701 102.554 96.0166 41.9541 102.383 96.9324 
41.4119 102.205 97.7666 40.8779 102.052 98.4993 40.3848 101.886 99.144 
45.0677 102.8 91.509 45.4094 102.571 90.6434 45.7171 102.417 89.6565 
46.0744 102.332 88.7234 46.6411 102.112 88.2674 47.3926 101.671 88.3354 
48.0196 101.067 88.6586 48.466 100.431 89.0575 48.851 99.8456 89.4988 
44.544 102.594 91.8542 44.2538 102.163 91.4276 43.9309 101.702 91.1154 
43.5928 101.13 90.9818 43.2889 100.419 91.0145 43.0415 99.6054 91.1557 
42.8538 98.7586 91.3846 42.8412 97.9519 91.7802 43.0151 97.3355 92.2827 
45.742 106.794 101.118 46.2988 106.985 100.645 47.0145 107.073 100.045 
47.7981 107.034 99.3851 48.5101 106.927 98.8473 49.2333 106.741 98.4073 
49.8656 106.472 97.9706 50.3087 106.175 97.5293 50.6678 105.861 97.1013 
44.5752 106.326 101.452 43.9375 105.99 101.329 43.3323 105.55 101.151 
42.7023 105.062 100.94 42.0583 104.56 100.735 41.5083 103.978 100.518 
41.0118 103.376 100.296 40.5635 102.806 100.097 40.2088 102.252 99.913 
45.8169 106.67 102.016 46.4677 106.701 102.561 47.2235 106.672 103.094 
48.1229 106.561 103.567 49.0878 106.359 103.985 49.9314 106.085 104.357 
50.6907 105.767 104.696 51.3801 105.368 104.955 51.969 104.924 105.13 
45.0684 106.371 102.212 44.8982 106.064 102.886 44.707 105.705 103.575 
44.5037 105.304 104.284 44.3015 104.837 104.915 44.1122 104.3 105.464 
43.9612 103.723 105.957 43.8363 103.144 106.339 43.7224 102.578 106.611 
51.7562 101.335 99.6236 51.9679 101.822 99.3057 52.1813 102.33 98.8932 
52.3957 102.84 98.3999 52.6078 103.369 97.828 52.631 103.97 97.3652 
52.3469 104.562 97.1252 51.8933 105.016 96.9841 51.4213 105.327 96.8366 
52.0294 101.112 100.461 52.6606 101.236 100.984 53.1175 101.529 101.622 
53.4066 101.88 102.374 53.7631 102.181 103.074 53.9915 102.699 103.759 
53.921 103.359 104.382 53.536 103.858 104.785 53.0109 104.198 105.041 
51.1941 100.927 99.0467 50.9335 100.803 98.0306 50.625 100.675 96.9734 
50.4011 100.41 95.8505 50.2754 99.9669 94.6094 50.0936 99.617 93.3965 
49.8983 99.4594 92.2884 49.7419 99.3684 91.2763 49.5284 99.3131 90.4578 
51.3931 105.771 97.4595 51.8878 106.018 98.264 52.3659 106.238 99.1463 
52.7276 106.282 100.113 52.9124 106.115 101.187 52.9505 105.853 102.245 
52.9238 105.519 103.209 52.8474 105.178 104.057 52.6877 104.844 104.754 
50.7803 105.16 96.0268 50.5327 104.681 95.2789 50.2486 104.134 94.4845 
49.9824 103.525 93.6303 49.764 102.83 92.6851 49.5489 102.12 91.8083 
49.3659 101.434 91.0823 49.3006 100.714 90.4456 49.295 99.9911 90.0052 
40.6662 96.7944 101.844 40.1925 97.1664 101.741 39.7058 97.6583 101.57 
39.1965 98.2177 101.3 38.7304 98.7664 100.988 38.5254 99.4849 100.683 
38.6985 100.252 100.372 39.1122 100.816 100.092 39.5761 101.269 99.8829 
40.9929 96.6078 102.683 40.9898 96.9341 103.418 41.1132 97.4101 104.042 
41.3286 97.9843 104.556 41.6395 98.6649 105.018 42.0509 99.4026 105.408 
42.439 100.09 105.825 42.7798 100.764 106.279 43.1784 101.425 106.596 
41.1109 96.5872 101.064 41.1517 96.6456 100.107 41.2689 96.5537 99.073 
41.533 96.3709 97.9976 41.9704 96.3003 96.8949 42.3945 96.312 95.9019 
42.7075 96.3389 95.0219 42.9652 96.4681 94.2232 43.1401 96.6736 93.4738 
39.7369 101.881 100.397 39.6044 102.088 101.22 39.6269 102.274 102.199 
39.8562 102.375 103.206 40.2861 102.364 104.076 40.8598 102.287 104.814 
41.5503 102.208 105.427 42.317 102.135 105.907 43.0101 102.065 106.35 
39.983 101.307 99.0989 40.0537 100.936 98.4096 40.2467 100.528 97.6476 
40.5964 100.002 96.8329 41.0596 99.4024 96.0406 41.5848 98.8263 95.2863 
42.0776 98.308 94.5565 42.5194 97.811 93.8571 42.903 97.327 93.2578 
51.8116 104.297 105.527 50.9294 104.031 105.727 49.9186 103.746 105.943 
48.9685 103.529 106.288 48.0348 103.329 106.7 47.0354 103.088 107.12 
46.0688 102.867 107.399 45.1536 102.621 107.38 44.3462 102.322 107.11 
48.6661 99.0955 89.9029 47.9515 98.8736 90.076 47.2051 98.5687 90.219 
46.5143 98.1638 90.3347 45.7288 97.8184 90.6367 44.9073 97.4801 90.9214 
44.1563 97.0298 91.0433 43.6099 96.7099 91.3341 43.341 96.7182 91.9893 
46.9801 96.894 96.9086 47.3516 97.4965 97.2462 46.9089 97.5264 97.8292 
47.7138 98.1985 97.6429 47.2951 98.1403 98.2627 46.7913 98.1329 98.8629 
48.1122 98.9113 98.1666 47.7159 98.776 98.8504 47.21 98.7121 99.4655 
46.7607 98.5865 100.107 48.6482 99.485 98.8067 48.275 99.3108 99.5287 
47.8409 99.134 100.171 47.4442 98.9298 100.756 47.0914 98.6497 101.395 
49.3162 99.8903 99.4093 49.0284 99.6768 100.096 48.7474 99.3739 100.763 
48.4355 99.0288 101.309 48.1198 98.6552 101.88 47.7321 98.3162 102.408 
50.05 100.201 99.887 49.8708 99.9231 100.52 49.7396 99.5425 101.177 
49.5132 99.1112 101.727 49.2255 98.6153 102.219 48.8576 98.2004 102.692 
48.407 97.8573 103.071 50.7817 100.478 100.239 50.7008 100.151 100.839 
50.6533 99.714 101.472 50.5116 99.2459 102.036 50.245 98.7223 102.487 
49.9203 98.2096 102.923 49.473 97.8434 103.318 48.9494 97.485 103.692 
47.3041 96.1285 95.4017 47.6272 96.0745 94.7944 47.6727 96.8032 95.699 
47.968 96.2048 94.1625 47.9968 96.8667 95.0537 47.9746 97.6342 96.0471 
48.3579 96.4724 93.4725 48.304 97.0856 94.3814 48.3477 97.7403 95.4058 
48.3234 98.4618 96.4286 48.7973 96.8293 92.8069 48.6457 97.381 93.7329 
48.7109 97.9209 94.7606 48.7401 98.5614 95.8205 48.8124 99.1511 96.9401 
49.2004 97.2641 92.1353 49.0909 97.6894 93.1008 49.112 98.142 94.1277 
49.1582 98.7184 95.2103 49.1875 99.3156 96.3402 49.4148 99.6985 97.568 
49.4762 97.8382 91.4549 49.4966 98.0781 92.4562 49.5467 98.4003 93.4955 
49.6137 98.8943 94.6056 49.581 99.5219 95.771 49.7398 99.9194 96.9459 
50.0698 100.124 98.156 49.5753 98.583 90.8675 49.705 98.6713 91.8204 
49.8045 98.8311 92.8821 49.9591 99.1506 93.9993 50.0037 99.7018 95.2217 
50.0707 100.168 96.3974 50.3699 100.364 97.522 50.681 100.519 98.6455 
49.5881 100.04 90.7318 49.6614 100.792 91.2449 49.8585 100.126 91.6428 
49.8017 101.549 91.9558 50.0264 100.901 92.2335 50.1208 100.223 92.7444 
50.035 102.343 92.8009 50.254 101.706 93.0485 50.4073 101.01 93.4239 
50.3989 100.405 93.9734 50.3541 103.13 93.7036 50.6209 102.547 93.9053 
50.7838 101.807 94.2265 50.7934 101.188 94.6768 50.649 100.741 95.2711 
50.68 103.793 94.5694 51.08 103.303 94.6958 51.2733 102.598 94.961 
51.2611 101.937 95.3938 51.1264 101.464 95.9593 50.9059 101.051 96.5318 
50.9624 104.367 95.394 51.4259 103.934 95.5087 51.7476 103.321 95.6829 
51.7622 102.659 96.0718 51.616 102.14 96.6432 51.4337 101.684 97.2143 
51.2029 101.217 97.6753 51.214 104.884 96.1559 51.6731 104.505 96.3003 
52.0886 103.972 96.4437 52.246 103.343 96.7402 52.114 102.773 97.2764 
51.9103 102.284 97.8592 51.6978 101.8 98.345 51.4628 101.323 98.7279 
52.2888 101.602 100.192 52.4981 102.176 99.8494 52.8786 101.878 100.728 
52.6797 102.784 99.4465 53.0473 102.582 100.405 53.2938 102.262 101.372 
52.886 103.356 98.9312 53.2316 103.244 99.9736 53.5397 102.983 100.972 
53.6397 102.634 102.052 53.028 103.966 98.3567 53.3799 103.927 99.4425 
53.7508 103.773 100.476 53.9304 103.473 101.574 53.969 103.107 102.756 
52.9003 104.641 97.9477 53.3614 104.673 98.9387 53.7593 104.64 100.018 
54.0251 104.462 101.112 54.0745 104.135 102.335 54.0339 103.777 103.512 
52.4853 105.2 97.7398 53.0489 105.353 98.6181 53.4937 105.404 99.6545 
[...]
POINT_DATA 1002
SCALARS _paraPhi double
LOOKUP_TABLE default
6.2831853072 3.1415926536 6.2831853072 3.1415926536 4.7123889804 4.7123889804 1.5707963268 1.5707963268 3.6951670125 
5.7296109483 2.5880182947 0.5535743589 6.2831853072 6.2831853072 6.2831853072 6.2831853072 3.1415926536 3.1415926536 
3.1415926536 3.1415926536 3.1415926536 6.1053039672 5.898798347 5.6768734901 5.4599499503 5.2659633393 5.1032165617 
4.9713148346 4.8656852733 4.7809517865 0.17788134 0.38438696014 0.60631181711 0.82323535693 1.0172219679 1.1799687454 
1.3118704726 1.4175000338 1.5022335207 6.1892828907 6.1070320098 6.035312792 5.9728339911 5.9183214791 5.8706119594 
5.8286879411 5.7916808611 5.7588591896 0.093902416448 0.17615329733 0.2478725152 0.31035131605 0.36486382811 0.41257334776 
0.45449736604 0.4915044461 0.52432611754 3.3194739936 3.5259796137 3.7479044707 3.9648280105 4.1588146215 4.321561399 
4.4534631262 4.5590926874 4.6438261743 2.9637113136 2.7572056934 2.5352808365 2.3183572967 2.1243706857 1.9616239082 
1.829722181 1.7240926197 1.6393591329 3.23549507 3.3177459509 3.3894651688 3.4519439696 3.5064564817 3.5541660013 
3.5960900196 3.6330970997 3.6659187711 3.0476902371 2.9654393563 2.8937201384 2.8312413375 2.7767288255 2.7290193058 
2.6870952876 2.6500882075 2.617266536 6.2831853072 6.2831853072 6.2831853072 6.2831853072 3.1415926536 3.1415926536 
3.1415926536 3.1415926536 3.1415926536 6.1053039672 5.898798347 5.6768734901 5.4599499503 5.2659633393 5.1032165617 
4.9713148346 4.8656852733 4.7809517865 0.17788134 0.38438696014 0.60631181711 0.82323535693 1.0172219679 1.1799687454 
1.3118704726 1.4175000338 1.5022335207 6.1892828907 6.1070320098 6.035312792 5.9728339911 5.9183214791 5.8706119594 
5.8286879411 5.7916808611 5.7588591896 0.093902416448 0.17615329733 0.2478725152 0.31035131605 0.36486382811 0.41257334776 
0.45449736604 0.4915044461 0.52432611754 3.3194739936 3.5259796137 3.7479044707 3.9648280105 4.1588146215 4.321561399 
4.4534631262 4.5590926874 4.6438261743 2.9637113136 2.7572056934 2.5352808365 2.3183572967 2.1243706857 1.9616239082 
1.829722181 1.7240926197 1.6393591329 3.23549507 3.3177459509 3.3894651688 3.4519439696 3.5064564817 3.5541660013 
3.5960900196 3.6330970997 3.6659187711 3.0476902371 2.9654393563 2.8937201384 2.8312413375 2.7767288255 2.7290193058 
2.6870952876 2.6500882075 2.617266536 4.7123889804 4.7123889804 4.7123889804 4.7123889804 4.7123889804 4.7123889804 
4.7123889804 4.7123889804 4.7123889804 4.6087898617 4.4991390697 4.3857031936 4.2712800401 4.1588146215 4.0509635631 
3.94975894 3.8564636551 3.7716124825 4.8159880991 4.9256388911 5.0390747672 5.1534979207 5.2659633393 5.3738143976 
5.4750190208 5.5683143056 5.6531654782 4.6087898617 4.4991390697 4.3857031936 4.2712800401 4.1588146215 4.0509635631 
3.94975894 3.8564636551 3.7716124825 4.8159880991 4.9256388911 5.0390747672 5.1534979207 5.2659633393 5.3738143976 
5.4750190208 5.5683143056 5.6531654782 1.5707963268 1.5707963268 1.5707963268 1.5707963268 1.5707963268 1.5707963268 
1.5707963268 1.5707963268 1.5707963268 1.6743954455 1.7840462375 1.8974821136 2.0119052671 2.1243706857 2.232221744 
2.3334263672 2.426721652 2.5115728246 1.4671972081 1.3575464161 1.24411054 1.1296873865 1.0172219679 0.90937090954 
0.80816628637 0.71487100155 0.63001982895 1.6743954455 1.7840462375 1.8974821136 2.0119052671 2.1243706857 2.232221744 
2.3334263672 2.426721652 2.5115728246 1.4671972081 1.3575464161 1.24411054 1.1296873865 1.0172219679 0.90937090954 
0.80816628637 0.71487100155 0.63001982895 3.6007720849 3.4966939854 3.3839471039 3.2645756454 3.1415926536 3.0186096618 
2.8992382033 2.7864913217 2.6824132222 5.8240058758 5.9280839753 6.0408308569 6.1602023154 6.2831853072 0.12298299178 
0.2423544503 0.35510133185 0.45917943135 6.0560271438 5.7885595667 5.9702140275 5.5125918794 5.6029703303 5.7885595667 
5.2659633393 5.2659633393 5.2659633393 5.2659633393 5.0674903122 5.0120975802 4.9155579264 4.7123889804 4.1588146215 
4.9155579264 4.8353719722 4.7123889804 4.5092200343 4.1588146215 3.6362183941 4.8004512023 4.7123889804 4.5894059886 
4.4126803806 4.1588146215 3.8218076305 3.4545639333 4.7123889804 4.6243267584 4.5092200343 4.3572876485 4.1588146215 
3.9121860814 3.6362183941 3.368750817 6.0174235957 5.9434319871 5.8263323547 5.8809213739 5.7674481418 5.6279784266 
5.8278025282 5.718968232 5.5891129425 5.4372443565 5.7823484065 5.678536687 5.5575666702 5.4192596322 5.2659633393 
5.743164462 5.6444075337 5.5314983644 5.4046708639 5.2659633393 5.1195510325 5.7091357773 5.6152775188 5.5096229709 
5.3926039573 5.2659633393 5.1329233157 4.9978930058 5.6793730533 5.5901633916 5.4910209005 5.3824597928 5.2659633393 
5.1440684722 5.0201624502 4.8979782167 5.5683143056 5.4750190208 5.4750190208 5.3738143976 5.3738143976 5.3738143976 
5.2659633393 5.2659633393 5.2659633393 5.2659633393 5.1534979207 5.1534979207 5.1534979207 5.1534979207 5.1534979207 
5.0390747672 5.0390747672 5.0390747672 5.0390747672 5.0390747672 5.0390747672 4.9256388911 4.9256388911 4.9256388911 
4.9256388911 4.9256388911 4.9256388911 4.9256388911 4.8159880991 4.8159880991 4.8159880991 4.8159880991 4.8159880991 
4.8159880991 4.8159880991 4.8159880991 4.6087898617 4.6087898617 4.4991390697 4.6087898617 4.4991390697 4.3857031936 
4.6087898617 4.4991390697 4.3857031936 4.2712800401 4.6087898617 4.4991390697 4.3857031936 4.2712800401 4.1588146215 
4.6087898617 4.4991390697 4.3857031936 4.2712800401 4.1588146215 4.0509635631 4.6087898617 4.4991390697 4.3857031936 
4.2712800401 4.1588146215 4.0509635631 3.94975894 4.6087898617 4.4991390697 4.3857031936 4.2712800401 4.1588146215 
4.0509635631 3.94975894 3.8564636551 4.526799744 4.4046155105 4.426884955 4.2807094886 4.2918546451 4.3052269283 
4.1588146215 4.1588146215 4.1588146215 4.1588146215 4.042318168 4.0321740035 4.0201070968 4.0055183285 3.9875336042 
3.9337570603 3.9151549899 3.8932795963 3.8672112905 3.8356650183 3.7967995342 3.8346145692 3.809500442 3.7803704271 
3.7462412737 3.7058097288 3.657329819 3.5984456061 3.7454049075 3.7156421835 3.6816134988 3.6424295543 3.5969754326 
3.5438565869 3.4813459737 3.4073543651 3.5642842451 3.4524645613 3.5233842518 3.3320300872 3.403123212 3.4773852225 
3.20576226 3.2746326772 3.348015857 3.4255060145 3.0774230472 3.1415926536 3.2112816139 3.2864685043 3.3668817272 
2.95115522 3.00855263 3.0719036933 3.1415926536 3.2178377658 3.3005964304 2.8307207459 2.8800620952 2.9351694502 
2.9967168029 3.0653475414 3.1415926536 3.225752376 2.718901062 2.7598010554 2.8058000847 2.8576792927 2.91630358 
2.9825888767 3.0574329311 3.1415926536 3.5642842451 3.5233842518 3.4524645613 3.4773852225 3.403123212 3.3320300872 
3.4255060145 3.348015857 3.2746326772 3.20576226 3.3668817272 3.2864685043 3.2112816139 3.1415926536 3.0774230472 
3.3005964304 3.2178377658 3.1415926536 3.0719036933 3.00855263 2.95115522 3.225752376 3.1415926536 3.0653475414 
2.9967168029 2.9351694502 2.8800620952 2.8307207459 3.1415926536 3.0574329311 2.9825888767 2.91630358 2.8576792927 
2.8058000847 2.7598010554 2.718901062 4.526799744 4.426884955 4.4046155105 4.3052269283 4.2918546451 4.2807094886 
4.1588146215 4.1588146215 4.1588146215 4.1588146215 3.9875336042 4.0055183285 4.0201070968 4.0321740035 4.042318168 
3.7967995342 3.8356650183 3.8672112905 3.8932795963 3.9151549899 3.9337570603 3.5984456061 3.657329819 3.7058097288 
3.7462412737 3.7803704271 3.809500442 3.8346145692 3.4073543651 3.4813459737 3.5438565869 3.5969754326 3.6424295543 
3.6816134988 3.7156421835 3.7454049075 4.7123889804 4.8004512023 4.6243267584 4.9155579264 4.7123889804 4.5092200343 
5.0674903122 4.8353719722 4.5894059886 4.3572876485 5.2659633393 5.0120975802 4.7123889804 4.4126803806 4.1588146215 
5.5125918794 5.2659633393 4.9155579264 4.5092200343 4.1588146215 3.9121860814 5.7885595667 5.6029703303 5.2659633393 
4.7123889804 4.1588146215 3.8218076305 3.6362183941 6.0560271438 5.9702140275 5.7885595667 5.2659633393 4.1588146215 
3.6362183941 3.4545639333 3.368750817 0.22715816343 0.49462574053 0.3129712797 0.77059342779 0.68021497688 0.49462574053 
1.0172219679 1.0172219679 1.0172219679 1.0172219679 1.2156949949 1.271087727 1.3676273807 1.5707963268 2.1243706857 
1.3676273807 1.447813335 1.5707963268 1.7739652728 2.1243706857 2.6469669131 1.4827341049 1.5707963268 1.6937793186 
1.8705049266 2.1243706857 2.4613776767 2.8286213739 1.5707963268 1.6588585487 1.7739652728 1.9258976586 2.1243706857 
2.3709992258 2.6469669131 2.9144344902 1.7563855631 1.8785697967 1.8563003522 2.0024758186 1.9913306621 1.9779583789 
2.1243706857 2.1243706857 2.1243706857 2.1243706857 2.2408671392 2.2510113037 2.2630782103 2.2776669786 2.295651703 
2.3494282469 2.3680303173 2.3899057108 2.4159740166 2.4475202889 2.486385773 2.448570738 2.4736848652 2.5028148801 
2.5369440334 2.5773755784 2.6258554882 2.6847397011 2.5377803997 2.5675431237 2.6015718084 2.6407557529 2.6862098746 
2.7393287203 2.8018393335 2.8758309421 1.6743954455 1.6743954455 1.7840462375 1.6743954455 1.7840462375 1.8974821136 
1.6743954455 1.7840462375 1.8974821136 2.0119052671 1.6743954455 1.7840462375 1.8974821136 2.0119052671 2.1243706857 
1.6743954455 1.7840462375 1.8974821136 2.0119052671 2.1243706857 2.232221744 1.6743954455 1.7840462375 1.8974821136 
2.0119052671 2.1243706857 2.232221744 2.3334263672 1.6743954455 1.7840462375 1.8974821136 2.0119052671 2.1243706857 
2.232221744 2.3334263672 2.426721652 1.4671972081 1.3575464161 1.4671972081 1.24411054 1.3575464161 1.4671972081 
1.1296873865 1.24411054 1.3575464161 1.4671972081 1.0172219679 1.1296873865 1.24411054 1.3575464161 1.4671972081 
0.90937090954 1.0172219679 1.1296873865 1.24411054 1.3575464161 1.4671972081 0.80816628637 0.90937090954 1.0172219679 
1.1296873865 1.24411054 1.3575464161 1.4671972081 0.71487100155 0.80816628637 0.90937090954 1.0172219679 1.1296873865 
1.24411054 1.3575464161 1.4671972081 0.60381225391 0.57404952988 0.69302191562 0.54002084522 0.66790778838 0.79216440667 
0.50083690068 0.63877777351 0.77356233629 0.90072551443 0.45538277901 0.60464862014 0.75168694275 0.89058134991 1.0172219679 
0.40226393329 0.56421707518 0.72561863695 0.87851444325 1.0172219679 1.139116835 0.33975332011 0.51573716537 0.69407236469 
0.86392567495 1.0172219679 1.1502619915 1.2630228569 0.26576171152 0.45685295248 0.6552068806 0.84594095064 1.0172219679 
1.1636342747 1.2852923014 1.3852070904 0.22715816343 0.3129712797 0.49462574053 0.49462574053 0.68021497688 0.77059342779 
1.0172219679 1.0172219679 1.0172219679 1.0172219679 2.1243706857 1.5707963268 1.3676273807 1.271087727 1.2156949949 
2.6469669131 2.1243706857 1.7739652728 1.5707963268 1.447813335 1.3676273807 2.8286213739 2.4613776767 2.1243706857 
1.8705049266 1.6937793186 1.5707963268 1.4827341049 2.9144344902 2.6469669131 2.3709992258 2.1243706857 1.9258976586 
1.7739652728 1.6588585487 1.5707963268 1.7563855631 1.8563003522 1.8785697967 1.9779583789 1.9913306621 2.0024758186 
2.1243706857 2.1243706857 2.1243706857 2.1243706857 2.295651703 2.2776669786 2.2630782103 2.2510113037 2.2408671392 
2.486385773 2.4475202889 2.4159740166 2.3899057108 2.3680303173 2.3494282469 2.6847397011 2.6258554882 2.5773755784 
2.5369440334 2.5028148801 2.4736848652 2.448570738 2.8758309421 2.8018393335 2.7393287203 2.6862098746 2.6407557529 
2.6015718084 2.5675431237 2.5377803997 5.8604937156 5.901393709 5.9723133995 5.9473927383 6.0216547488 6.0927478736 
5.9992719463 6.0767621038 6.1501452836 6.2190157008 6.0578962336 6.1383094565 6.2134963469 0 0.064169606361 
6.1241815303 6.206940195 6.2831853072 0.069688960264 0.13304002361 0.19043743361 6.1990255847 0 0.07624511221 
0.14487585072 0.20642320337 0.26153055843 0.3108719077 0 0.084159722458 0.15900377685 0.22528907359 0.28391336087 
0.3357925689 0.38179159818 0.42269159155 5.8604937156 5.9723133995 5.901393709 6.0927478736 6.0216547488 5.9473927383 
6.2190157008 6.1501452836 6.0767621038 5.9992719463 0.064169606361 0 6.2134963469 6.1383094565 6.0578962336 
0.19043743361 0.13304002361 0.069688960264 6.2831853072 6.206940195 6.1241815303 0.3108719077 0.26153055843 0.20642320337 
0.14487585072 0.07624511221 6.2831853072 6.1990255847 0.42269159155 0.38179159818 0.3357925689 0.28391336087 0.22528907359 
0.15900377685 0.084159722458 0 5.6793730533 5.7091357773 5.5901633916 5.743164462 5.6152775188 5.4910209005 
5.7823484065 5.6444075337 5.5096229709 5.3824597928 5.8278025282 5.678536687 5.5314983644 5.3926039573 5.2659633393 
5.8809213739 5.718968232 5.5575666702 5.4046708639 5.2659633393 5.1440684722 5.9434319871 5.7674481418 5.5891129425 
5.4192596322 5.2659633393 5.1329233157 5.0201624502 6.0174235957 5.8263323547 5.6279784266 5.4372443565 5.2659633393 
5.1195510325 4.9978930058 4.8979782167 1.3852070904 1.2852923014 1.2630228569 1.1636342747 1.1502619915 1.139116835 
1.0172219679 1.0172219679 1.0172219679 1.0172219679 0.84594095064 0.86392567495 0.87851444325 0.89058134991 0.90072551443 
0.6552068806 0.69407236469 0.72561863695 0.75168694275 0.77356233629 0.79216440667 0.45685295248 0.51573716537 0.56421707518 
0.60464862014 0.63877777351 0.66790778838 0.69302191562 0.26576171152 0.33975332011 0.40226393329 0.45538277901 0.50083690068 
0.54002084522 0.57404952988 0.60381225391 
