# vtk DataFile Version 4.1
vtk output
ASCII
DATASET POLYDATA
POINTS 1002 float
46.1729 95.1959 95.2644 48.2546 98.5642 103.848 43.5201 102.7 91.5447 
45.5546 104.8 101.039 55.4656 99.5377 98.7702 53.217 105.004 95.9677 
37.8641 93.4524 101.093 36.6304 100.209 98.7831 55.4557 102.79 106.218 
50.4632 99.6268 89.6277 42.4228 100.716 106.654 38.312 95.4935 91.9338 
46.0211 95.775 95.8832 45.9085 96.3788 96.5551 45.8153 97.0072 97.2459 
45.7981 97.5828 98.0371 45.9772 98.0193 99.0279 46.3375 98.2879 100.055 
46.759 98.4827 101.061 47.2369 98.6847 102.133 47.7505 98.7246 103.087 
46.5841 95.8921 95.2393 47.1292 96.6999 95.2881 47.7742 97.5805 95.4225 
48.4676 98.4454 95.6546 49.2935 99.1598 96.0072 50.4184 99.5889 96.568 
51.7663 99.6871 97.3175 53.1849 99.5492 97.9839 54.4646 99.4686 98.4468 
45.5962 94.9987 95.689 44.8127 94.9147 96.1341 43.796 94.8488 96.6169 
42.6319 94.7824 97.2009 41.5565 94.5371 97.9406 40.6631 93.9861 98.8652 
39.9507 93.3561 99.7468 39.2773 93.075 100.363 38.5677 93.166 100.768 
46.6291 94.9915 94.7104 47.1899 94.8427 94.1666 47.7569 94.9809 93.5874 
48.38 95.323 92.908 48.9862 95.8266 92.2297 49.4769 96.4916 91.6031 
49.748 97.3379 91.0278 49.9992 98.189 90.4935 50.2526 98.9591 90.0339 
46.0412 94.3982 94.9861 45.6739 93.618 94.6537 44.9077 93.327 94.2353 
43.8928 93.5644 93.7062 42.8242 93.9663 93.1747 41.6408 94.3406 92.806 
40.4728 94.5826 92.5159 39.5353 94.8074 92.3171 38.7974 95.0738 92.0784 
49.1405 98.7734 103.728 50.1485 99.0021 103.517 51.1259 99.0353 103.097 
52.0512 98.9146 102.507 52.9756 98.9142 101.958 53.759 99.0087 101.423 
54.3376 98.9868 100.717 54.8272 99.0591 99.9669 55.2505 99.2203 99.3355 
47.0224 98.5745 103.416 45.6037 98.5641 102.927 44.2557 98.3003 102.517 
43.2791 97.5893 102.258 42.5965 96.4931 102.159 41.8508 95.4447 102.163 
40.8635 94.7361 102.039 39.7223 94.2593 101.735 38.6663 93.8556 101.395 
49.2794 98.3564 104.411 50.3 98.1845 104.954 51.3657 98.2776 105.511 
52.3903 98.7248 105.995 53.2413 99.3102 106.305 53.9651 99.9451 106.565 
54.633 100.658 106.779 55.1455 101.401 106.811 55.4188 102.152 106.605 
48.0379 98.2831 104.307 47.774 98.0681 104.911 47.3102 98.1696 105.633 
46.6998 98.4689 106.236 46.0334 98.812 106.581 45.307 99.113 106.918 
44.5258 99.4391 107.188 43.7149 99.8373 107.109 43.0075 100.29 106.88 
43.5673 103.088 92.1971 43.6229 103.481 92.961 43.7016 103.85 93.8532 
43.8689 104.178 94.9006 44.0646 104.506 95.9837 44.2188 104.807 97.0616 
44.4794 104.933 98.173 44.8699 104.893 99.2147 45.2493 104.829 100.155 
44.2606 103.088 91.4802 45.0679 103.531 91.4619 45.9859 103.956 91.5509 
47.0959 104.212 91.8629 48.3379 104.402 92.3968 49.5059 104.663 93.0411 
50.5464 104.837 93.7779 51.5071 104.908 94.5671 52.4027 104.979 95.3156 
42.813 102.537 92.0536 42.0605 102.346 92.6552 41.2942 102.094 93.3345 
40.5199 101.806 94.1204 39.7136 101.521 94.948 38.9353 101.241 95.7625 
38.2346 100.961 96.592 37.6028 100.707 97.3895 37.0641 100.467 98.0999 
43.9456 102.551 90.8793 44.4449 102.434 90.1524 44.9614 102.376 89.2914 
45.6003 102.316 88.4632 46.5762 102.032 88.1045 47.7522 101.578 88.1972 
48.6865 101.114 88.5236 49.3788 100.636 88.9513 49.9679 100.128 89.3211 
43.0253 102.193 91.2397 42.4683 101.613 90.9542 41.8537 101.006 90.7332 
41.148 100.344 90.5398 40.4161 99.5703 90.4318 39.7224 98.7399 90.4542 
39.11 97.9107 90.6777 38.6408 97.0742 91.0263 38.398 96.2299 91.4761 
46.3407 104.968 100.664 47.1468 105.221 100.314 47.9687 105.535 99.9421 
48.8533 105.697 99.4231 49.8137 105.679 98.7714 50.8125 105.665 98.0664 
51.6766 105.674 97.3914 52.3135 105.546 96.8356 52.8064 105.29 96.3829 
44.5637 104.645 100.905 43.5135 104.414 100.741 42.4511 104.071 100.524 
41.4051 103.6 100.26 40.3648 103.072 100.007 39.3575 102.56 99.7854 
38.4446 102.013 99.5434 37.7065 101.397 99.2647 37.1163 100.789 99.0089 
46.3216 104.892 101.697 47.2078 104.97 102.419 48.233 104.936 103.088 
49.3835 104.81 103.707 50.6146 104.58 104.285 51.8622 104.276 104.806 
53.0304 103.97 105.281 54.0182 103.64 105.696 54.8712 103.244 106.04 
45.2481 104.647 101.807 44.9452 104.387 102.522 44.6234 104.041 103.213 
44.2103 103.727 104.014 43.7827 103.387 104.791 43.4156 102.917 105.372 
43.147 102.356 105.83 42.8817 101.816 106.229 42.628 101.282 106.509 
56.0185 99.8943 98.5618 56.3394 100.398 98.2447 56.5312 101.059 97.8971 
56.6034 101.844 97.5477 56.4771 102.719 97.1744 56.1496 103.565 96.8162 
55.6399 104.207 96.5371 54.8552 104.578 96.3238 54.0046 104.829 96.123 
56.2775 99.498 99.4 57.0476 99.4753 100.071 57.6988 99.5006 100.882 
57.9746 99.7816 101.916 57.8949 100.328 102.997 57.7075 100.884 103.941 
57.2834 101.467 104.682 56.7189 102.068 105.341 56.1276 102.506 105.882 
55.0714 99.7137 97.928 54.5272 99.8127 96.8532 53.8755 99.8777 95.6911 
53.3327 99.8068 94.432 53.0722 99.4701 93.0976 52.9608 99.0526 91.8712 
52.7042 98.9238 90.8646 52.1585 99.1061 90.1258 51.3656 99.3963 89.7291 
53.7897 105.114 96.9018 54.4099 105.115 97.9795 55.0135 104.97 99.2375 
55.5708 104.759 100.516 55.9673 104.479 101.683 56.16 104.163 102.733 
56.1839 103.839 103.805 56.0717 103.531 104.789 55.8327 103.205 105.595 
53.1149 104.722 95.1308 52.9777 104.376 94.185 52.828 103.963 93.1619 
52.6774 103.466 92.0923 52.4572 102.901 91.0821 52.2959 102.236 90.1094 
52.1834 101.497 89.3239 51.8183 100.77 89.0598 51.2005 100.149 89.2472 
36.9983 93.5767 101.144 36.1761 93.8877 101.168 35.4738 94.4169 101.148 
34.9728 95.2304 100.997 34.6651 96.3517 100.699 34.7513 97.4659 100.329 
35.1633 98.3188 99.9625 35.6536 99.0111 99.5607 36.1281 99.6531 99.1267 
37.6627 94.0276 101.635 37.69 94.6381 102.295 37.8465 95.3481 103.001 
38.1277 96.104 103.594 38.6085 96.9114 104.092 39.2665 97.7068 104.769 
40.0005 98.4616 105.494 40.8171 99.2554 106.039 41.6361 100.052 106.423 
37.5731 92.8519 100.533 37.2665 92.2491 99.8301 37.0047 92.177 99.082 
36.9103 92.7093 98.1692 36.9325 93.2433 96.8645 37.0145 93.2879 95.2569 
37.2568 93.4571 94.0024 37.532 93.9812 93.1331 37.848 94.7442 92.4647 
36.577 100.283 99.7283 36.6217 100.376 100.834 36.8455 100.435 101.834 
37.3387 100.381 102.68 38.0728 100.287 103.417 38.9341 100.301 104.072 
39.7855 100.44 104.785 40.6036 100.595 105.56 41.4686 100.698 106.206 
36.3957 99.8056 98.1231 36.2697 99.2806 97.4402 36.2652 98.6986 96.6429 
36.2733 98.1742 95.7767 36.3173 97.6217 94.907 36.5358 97.0528 94.0794 
36.9042 96.5494 93.3482 37.2535 96.0771 92.7133 37.6754 95.6781 92.2054 
54.577 102.623 106.578 53.3937 102.426 106.776 52.0241 102.229 106.922 
50.7314 102.089 107.315 49.3124 102.008 107.685 47.6629 101.893 107.664 
46.0738 101.597 107.546 44.7254 101.288 107.363 43.5502 101.011 107.022 
49.4282 99.3683 89.778 48.3338 99.0339 89.889 47.1139 98.6485 90.1063 
45.8119 98.2031 90.4062 44.441 97.7572 90.6117 43.077 97.3169 90.8224 
41.8026 96.8464 91.1036 40.4972 96.3679 91.3375 39.2638 95.8886 91.5833 
46.5358 96.5048 95.9223 47.1392 97.3654 96.0075 46.5202 97.1452 96.6605 
47.7899 98.2883 96.1777 47.1825 98.0382 96.8122 46.5666 97.7382 97.4582 
48.5827 99.0905 96.5327 47.943 98.9107 97.1511 47.428 98.5423 97.8288 
46.805 98.1681 98.4685 49.7624 99.5614 97.1475 49.054 99.5148 97.8077 
48.4513 99.2888 98.4812 47.9187 98.8194 99.0652 47.2053 98.4459 99.6188 
51.1972 99.6352 97.901 50.5441 99.6622 98.5916 49.808 99.6674 99.2975 
49.126 99.3771 99.8073 48.4182 98.9524 100.263 47.6392 98.6286 100.731 
52.6447 99.4499 98.5909 52.0741 99.4678 99.2373 51.4122 99.5826 99.9839 
50.6422 99.5196 100.54 49.7984 99.3144 100.989 48.9579 99.0944 101.488 
48.1361 98.847 101.905 54.0288 99.2562 99.0421 53.4995 99.2034 99.6804 
52.9448 99.304 100.428 52.2864 99.3192 101.08 51.4457 99.239 101.6 
50.5185 99.2362 102.15 49.5973 99.2045 102.679 48.6694 98.9667 102.966 
47.058 95.8313 94.6706 47.5966 95.8974 94.1258 47.6183 96.7683 94.7124 
48.2552 96.099 93.499 48.2093 96.9314 94.1297 48.3643 97.6718 94.8687 
49.1298 96.2466 92.8058 49.0305 97.0265 93.4933 49.0766 97.7376 94.2617 
49.152 98.4756 95.1131 49.9596 96.5078 92.1006 49.986 97.0589 92.8715 
49.943 97.7557 93.6961 49.9757 98.4234 94.5136 50.0585 99.1338 95.4585 
50.521 97.0496 91.3791 50.8014 97.2692 92.1352 50.8231 97.8516 93.0957 
50.8776 98.4337 93.9706 50.9435 99.0479 94.8839 51.1992 99.5754 96.0404 
50.8609 97.8475 90.7451 51.4492 97.7184 91.3141 51.649 98.024 92.2693 
51.7212 98.5453 93.3189 51.8141 99.0591 94.3562 52.0687 99.4912 95.5206 
52.5921 99.6659 96.8131 51.1498 98.6594 90.2086 51.9101 98.365 90.6554 
52.3443 98.3288 91.4521 52.4676 98.6951 92.5225 52.5343 99.2055 93.7364 
52.8051 99.556 94.9969 53.356 99.6763 96.2514 53.9659 99.6445 97.4551 
52.0611 99.9478 89.532 52.5458 100.713 89.6286 52.6995 99.792 90.2125 
52.8032 101.612 90.2253 52.9832 100.772 90.668 53.0659 99.7951 91.286 
53.0474 102.439 91.117 53.273 101.754 91.4592 53.313 100.869 92.0377 
53.3234 100.014 92.5725 53.3604 103.091 92.0965 53.7433 102.489 92.3699 
53.7981 101.694 92.9298 53.804 100.913 93.5046 53.6884 100.263 93.9752 
53.5557 103.678 93.2075 54.1386 103.159 93.4153 54.3927 102.383 93.85 
54.4697 101.562 94.3894 54.477 100.871 94.8769 54.2853 100.291 95.3022 
53.7337 104.178 94.2804 54.4446 103.806 94.468 54.9193 103.147 94.7721 
55.1263 102.275 95.1847 55.2415 101.434 95.628 55.2202 100.723 96.0651 
54.9862 100.159 96.4837 53.9013 104.547 95.2423 54.7224 104.273 95.424 
55.3674 103.771 95.6618 55.7395 103.006 95.9837 55.9198 102.098 96.3808 
55.9584 101.265 96.7881 55.8463 100.564 97.1963 55.5726 100.031 97.5891 
56.7387 99.9886 99.2179 57.0493 100.637 98.9346 57.5144 100.084 99.9063 
57.2119 101.46 98.5962 57.756 100.937 99.6186 58.1147 100.286 100.769 
57.1591 102.404 98.2807 57.7735 102.002 99.2837 58.1918 101.387 100.508 
58.2445 100.744 101.863 56.8316 103.347 97.966 57.5599 103.088 99.0332 
58.1211 102.634 100.226 58.2807 102.015 101.705 58.1246 101.375 103.024 
56.3119 104.109 97.6684 57.0893 103.961 98.8424 57.8128 103.67 100.063 
58.1631 103.216 101.448 58.113 102.639 102.875 57.7775 101.986 103.921 
[...]
POINT_DATA 1002
SCALARS _paraPhi double
LOOKUP_TABLE default
6.2831853072 3.1415926536 6.2831853072 3.1415926536 4.7123889804 4.7123889804 1.5707963268 1.5707963268 3.6951670125 
5.7296109483 2.5880182947 0.5535743589 6.2831853072 6.2831853072 6.2831853072 6.2831853072 3.1415926536 3.1415926536 
3.1415926536 3.1415926536 3.1415926536 6.1053039672 5.898798347 5.6768734901 5.4599499503 5.2659633393 5.1032165617 
4.9713148346 4.8656852733 4.7809517865 0.17788134 0.38438696014 0.60631181711 0.82323535693 1.0172219679 1.1799687454 
1.3118704726 1.4175000338 1.5022335207 6.1892828907 6.1070320098 6.035312792 5.9728339911 5.9183214791 5.8706119594 
5.8286879411 5.7916808611 5.7588591896 0.093902416448 0.17615329733 0.2478725152 0.31035131605 0.36486382811 0.41257334776 
0.45449736604 0.4915044461 0.52432611754 3.3194739936 3.5259796137 3.7479044707 3.9648280105 4.1588146215 4.321561399 
4.4534631262 4.5590926874 4.6438261743 2.9637113136 2.7572056934 2.5352808365 2.3183572967 2.1243706857 1.9616239082 
1.829722181 1.7240926197 1.6393591329 3.23549507 3.3177459509 3.3894651688 3.4519439696 3.5064564817 3.5541660013 
3.5960900196 3.6330970997 3.6659187711 3.0476902371 2.9654393563 2.8937201384 2.8312413375 2.7767288255 2.7290193058 
2.6870952876 2.6500882075 2.617266536 6.2831853072 6.2831853072 6.2831853072 6.2831853072 3.1415926536 3.1415926536 
3.1415926536 3.1415926536 3.1415926536 6.1053039672 5.898798347 5.6768734901 5.4599499503 5.2659633393 5.1032165617 
4.9713148346 4.8656852733 4.7809517865 0.17788134 0.38438696014 0.60631181711 0.82323535693 1.0172219679 1.1799687454 
1.3118704726 1.4175000338 1.5022335207 6.1892828907 6.1070320098 6.035312792 5.9728339911 5.9183214791 5.8706119594 
5.8286879411 5.7916808611 5.7588591896 0.093902416448 0.17615329733 0.2478725152 0.31035131605 0.36486382811 0.41257334776 
0.45449736604 0.4915044461 0.52432611754 3.3194739936 3.5259796137 3.7479044707 3.9648280105 4.1588146215 4.321561399 
4.4534631262 4.5590926874 4.6438261743 2.9637113136 2.7572056934 2.5352808365 2.3183572967 2.1243706857 1.9616239082 
1.829722181 1.7240926197 1.6393591329 3.23549507 3.3177459509 3.3894651688 3.4519439696 3.5064564817 3.5541660013 
3.5960900196 3.6330970997 3.6659187711 3.0476902371 2.9654393563 2.8937201384 2.8312413375 2.7767288255 2.7290193058 
2.6870952876 2.6500882075 2.617266536 4.7123889804 4.7123889804 4.7123889804 4.7123889804 4.7123889804 4.7123889804 
4.7123889804 4.7123889804 4.7123889804 4.6087898617 4.4991390697 4.3857031936 4.2712800401 4.1588146215 4.0509635631 
3.94975894 3.8564636551 3.7716124825 4.8159880991 4.9256388911 5.0390747672 5.1534979207 5.2659633393 5.3738143976 
5.4750190208 5.5683143056 5.6531654782 4.6087898617 4.4991390697 4.3857031936 4.2712800401 4.1588146215 4.0509635631 
3.94975894 3.8564636551 3.7716124825 4.8159880991 4.9256388911 5.0390747672 5.1534979207 5.2659633393 5.3738143976 
5.4750190208 5.5683143056 5.6531654782 1.5707963268 1.5707963268 1.5707963268 1.5707963268 1.5707963268 1.5707963268 
1.5707963268 1.5707963268 1.5707963268 1.6743954455 1.7840462375 1.8974821136 2.0119052671 2.1243706857 2.232221744 
2.3334263672 2.426721652 2.5115728246 1.4671972081 1.3575464161 1.24411054 1.1296873865 1.0172219679 0.90937090954 
0.80816628637 0.71487100155 0.63001982895 1.6743954455 1.7840462375 1.8974821136 2.0119052671 2.1243706857 2.232221744 
2.3334263672 2.426721652 2.5115728246 1.4671972081 1.3575464161 1.24411054 1.1296873865 1.0172219679 0.90937090954 
0.80816628637 0.71487100155 0.63001982895 3.6007720849 3.4966939854 3.3839471039 3.2645756454 3.1415926536 3.0186096618 
2.8992382033 2.7864913217 2.6824132222 5.8240058758 5.9280839753 6.0408308569 6.1602023154 6.2831853072 0.12298299178 
0.2423544503 0.35510133185 0.45917943135 6.0560271438 5.7885595667 5.9702140275 5.5125918794 5.6029703303 5.7885595667 
5.2659633393 5.2659633393 5.2659633393 5.2659633393 5.0674903122 5.0120975802 4.9155579264 4.7123889804 4.1588146215 
4.9155579264 4.8353719722 4.7123889804 4.5092200343 4.1588146215 3.6362183941 4.8004512023 4.7123889804 4.5894059886 
4.4126803806 4.1588146215 3.8218076305 3.4545639333 4.7123889804 4.6243267584 4.5092200343 4.3572876485 4.1588146215 
3.9121860814 3.6362183941 3.368750817 6.0174235957 5.9434319871 5.8263323547 5.8809213739 5.7674481418 5.6279784266 
5.8278025282 5.718968232 5.5891129425 5.4372443565 5.7823484065 5.678536687 5.5575666702 5.4192596322 5.2659633393 
5.743164462 5.6444075337 5.5314983644 5.4046708639 5.2659633393 5.1195510325 5.7091357773 5.6152775188 5.5096229709 
5.3926039573 5.2659633393 5.1329233157 4.9978930058 5.6793730533 5.5901633916 5.4910209005 5.3824597928 5.2659633393 
5.1440684722 5.0201624502 4.8979782167 5.5683143056 5.4750190208 5.4750190208 5.3738143976 5.3738143976 5.3738143976 
5.2659633393 5.2659633393 5.2659633393 5.2659633393 5.1534979207 5.1534979207 5.1534979207 5.1534979207 5.1534979207 
5.0390747672 5.0390747672 5.0390747672 5.0390747672 5.0390747672 5.0390747672 4.9256388911 4.9256388911 4.9256388911 
4.9256388911 4.9256388911 4.9256388911 4.9256388911 4.8159880991 4.8159880991 4.8159880991 4.8159880991 4.8159880991 
4.8159880991 4.8159880991 4.8159880991 4.6087898617 4.6087898617 4.4991390697 4.6087898617 4.4991390697 4.3857031936 
4.6087898617 4.4991390697 4.3857031936 4.2712800401 4.6087898617 4.4991390697 4.3857031936 4.2712800401 4.1588146215 
4.6087898617 4.4991390697 4.3857031936 4.2712800401 4.1588146215 4.0509635631 4.6087898617 4.4991390697 4.3857031936 
4.2712800401 4.1588146215 4.0509635631 3.94975894 4.6087898617 4.4991390697 4.3857031936 4.2712800401 4.1588146215 
4.0509635631 3.94975894 3.8564636551 4.526799744 4.4046155105 4.426884955 4.2807094886 4.2918546451 4.3052269283 
4.1588146215 4.1588146215 4.1588146215 4.1588146215 4.042318168 4.0321740035 4.0201070968 4.0055183285 3.9875336042 
3.9337570603 3.9151549899 3.8932795963 3.8672112905 3.8356650183 3.7967995342 3.8346145692 3.809500442 3.7803704271 
3.7462412737 3.7058097288 3.657329819 3.5984456061 3.7454049075 3.7156421835 3.6816134988 3.6424295543 3.5969754326 
3.5438565869 3.4813459737 3.4073543651 3.5642842451 3.4524645613 3.5233842518 3.3320300872 3.403123212 3.4773852225 
3.20576226 3.2746326772 3.348015857 3.4255060145 3.0774230472 3.1415926536 3.2112816139 3.2864685043 3.3668817272 
2.95115522 3.00855263 3.0719036933 3.1415926536 3.2178377658 3.3005964304 2.8307207459 2.8800620952 2.9351694502 
2.9967168029 3.0653475414 3.1415926536 3.225752376 2.718901062 2.7598010554 2.8058000847 2.8576792927 2.91630358 
2.9825888767 3.0574329311 3.1415926536 3.5642842451 3.5233842518 3.4524645613 3.4773852225 3.403123212 3.3320300872 
3.4255060145 3.348015857 3.2746326772 3.20576226 3.3668817272 3.2864685043 3.2112816139 3.1415926536 3.0774230472 
3.3005964304 3.2178377658 3.1415926536 3.0719036933 3.00855263 2.95115522 3.225752376 3.1415926536 3.0653475414 
2.9967168029 2.9351694502 2.8800620952 2.8307207459 3.1415926536 3.0574329311 2.9825888767 2.91630358 2.8576792927 
2.8058000847 2.7598010554 2.718901062 4.526799744 4.426884955 4.4046155105 4.3052269283 4.2918546451 4.2807094886 
4.1588146215 4.1588146215 4.1588146215 4.1588146215 3.9875336042 4.0055183285 4.0201070968 4.0321740035 4.042318168 
3.7967995342 3.8356650183 3.8672112905 3.8932795963 3.9151549899 3.9337570603 3.5984456061 3.657329819 3.7058097288 
3.7462412737 3.7803704271 3.809500442 3.8346145692 3.4073543651 3.4813459737 3.5438565869 3.5969754326 3.6424295543 
3.6816134988 3.7156421835 3.7454049075 4.7123889804 4.8004512023 4.6243267584 4.9155579264 4.7123889804 4.5092200343 
5.0674903122 4.8353719722 4.5894059886 4.3572876485 5.2659633393 5.0120975802 4.7123889804 4.4126803806 4.1588146215 
5.5125918794 5.2659633393 4.9155579264 4.5092200343 4.1588146215 3.9121860814 5.7885595667 5.6029703303 5.2659633393 
4.7123889804 4.1588146215 3.8218076305 3.6362183941 6.0560271438 5.9702140275 5.7885595667 5.2659633393 4.1588146215 
3.6362183941 3.4545639333 3.368750817 0.22715816343 0.49462574053 0.3129712797 0.77059342779 0.68021497688 0.49462574053 
1.0172219679 1.0172219679 1.0172219679 1.0172219679 1.2156949949 1.271087727 1.3676273807 1.5707963268 2.1243706857 
1.3676273807 1.447813335 1.5707963268 1.7739652728 2.1243706857 2.6469669131 1.4827341049 1.5707963268 1.6937793186 
1.8705049266 2.1243706857 2.4613776767 2.8286213739 1.5707963268 1.6588585487 1.7739652728 1.9258976586 2.1243706857 
2.3709992258 2.6469669131 2.9144344902 1.7563855631 1.8785697967 1.8563003522 2.0024758186 1.9913306621 1.9779583789 
2.1243706857 2.1243706857 2.1243706857 2.1243706857 2.2408671392 2.2510113037 2.2630782103 2.2776669786 2.295651703 
2.3494282469 2.3680303173 2.3899057108 2.4159740166 2.4475202889 2.486385773 2.448570738 2.4736848652 2.5028148801 
2.5369440334 2.5773755784 2.6258554882 2.6847397011 2.5377803997 2.5675431237 2.6015718084 2.6407557529 2.6862098746 
2.7393287203 2.8018393335 2.8758309421 1.6743954455 1.6743954455 1.7840462375 1.6743954455 1.7840462375 1.8974821136 
1.6743954455 1.7840462375 1.8974821136 2.0119052671 1.6743954455 1.7840462375 1.8974821136 2.0119052671 2.1243706857 
1.6743954455 1.7840462375 1.8974821136 2.0119052671 2.1243706857 2.232221744 1.6743954455 1.7840462375 1.8974821136 
2.0119052671 2.1243706857 2.232221744 2.3334263672 1.6743954455 1.7840462375 1.8974821136 2.0119052671 2.1243706857 
2.232221744 2.3334263672 2.426721652 1.4671972081 1.3575464161 1.4671972081 1.24411054 1.3575464161 1.4671972081 
1.1296873865 1.24411054 1.3575464161 1.4671972081 1.0172219679 1.1296873865 1.24411054 1.3575464161 1.4671972081 
0.90937090954 1.0172219679 1.1296873865 1.24411054 1.3575464161 1.4671972081 0.80816628637 0.90937090954 1.0172219679 
1.1296873865 1.24411054 1.3575464161 1.4671972081 0.71487100155 0.80816628637 0.90937090954 1.0172219679 1.1296873865 
1.24411054 1.3575464161 1.4671972081 0.60381225391 0.57404952988 0.69302191562 0.54002084522 0.66790778838 0.79216440667 
0.50083690068 0.63877777351 0.77356233629 0.90072551443 0.45538277901 0.60464862014 0.75168694275 0.89058134991 1.0172219679 
0.40226393329 0.56421707518 0.72561863695 0.87851444325 1.0172219679 1.139116835 0.33975332011 0.51573716537 0.69407236469 
0.86392567495 1.0172219679 1.1502619915 1.2630228569 0.26576171152 0.45685295248 0.6552068806 0.84594095064 1.0172219679 
1.1636342747 1.2852923014 1.3852070904 0.22715816343 0.3129712797 0.49462574053 0.49462574053 0.68021497688 0.77059342779 
1.0172219679 1.0172219679 1.0172219679 1.0172219679 2.1243706857 1.5707963268 1.3676273807 1.271087727 1.2156949949 
2.6469669131 2.1243706857 1.7739652728 1.5707963268 1.447813335 1.3676273807 2.8286213739 2.4613776767 2.1243706857 
1.8705049266 1.6937793186 1.5707963268 1.4827341049 2.9144344902 2.6469669131 2.3709992258 2.1243706857 1.9258976586 
1.7739652728 1.6588585487 1.5707963268 1.7563855631 1.8563003522 1.8785697967 1.9779583789 1.9913306621 2.0024758186 
2.1243706857 2.1243706857 2.1243706857 2.1243706857 2.295651703 2.2776669786 2.2630782103 2.2510113037 2.2408671392 
2.486385773 2.4475202889 2.4159740166 2.3899057108 2.3680303173 2.3494282469 2.6847397011 2.6258554882 2.5773755784 
2.5369440334 2.5028148801 2.4736848652 2.448570738 2.8758309421 2.8018393335 2.7393287203 2.6862098746 2.6407557529 
2.6015718084 2.5675431237 2.5377803997 5.8604937156 5.901393709 5.9723133995 5.9473927383 6.0216547488 6.0927478736 
5.9992719463 6.0767621038 6.1501452836 6.2190157008 6.0578962336 6.1383094565 6.2134963469 0 0.064169606361 
6.1241815303 6.206940195 6.2831853072 0.069688960264 0.13304002361 0.19043743361 6.1990255847 0 0.07624511221 
0.14487585072 0.20642320337 0.26153055843 0.3108719077 0 0.084159722458 0.15900377685 0.22528907359 0.28391336087 
0.3357925689 0.38179159818 0.42269159155 5.8604937156 5.9723133995 5.901393709 6.0927478736 6.0216547488 5.9473927383 
6.2190157008 6.1501452836 6.0767621038 5.9992719463 0.064169606361 0 6.2134963469 6.1383094565 6.0578962336 
0.19043743361 0.13304002361 0.069688960264 6.2831853072 6.206940195 6.1241815303 0.3108719077 0.26153055843 0.20642320337 
0.14487585072 0.07624511221 6.2831853072 6.1990255847 0.42269159155 0.38179159818 0.3357925689 0.28391336087 0.22528907359 
0.15900377685 0.084159722458 0 5.6793730533 5.7091357773 5.5901633916 5.743164462 5.6152775188 5.4910209005 
5.7823484065 5.6444075337 5.5096229709 5.3824597928 5.8278025282 5.678536687 5.5314983644 5.3926039573 5.2659633393 
5.8809213739 5.718968232 5.5575666702 5.4046708639 5.2659633393 5.1440684722 5.9434319871 5.7674481418 5.5891129425 
5.4192596322 5.2659633393 5.1329233157 5.0201624502 6.0174235957 5.8263323547 5.6279784266 5.4372443565 5.2659633393 
5.1195510325 4.9978930058 4.8979782167 1.3852070904 1.2852923014 1.2630228569 1.1636342747 1.1502619915 1.139116835 
1.0172219679 1.0172219679 1.0172219679 1.0172219679 0.84594095064 0.86392567495 0.87851444325 0.89058134991 0.90072551443 
0.6552068806 0.69407236469 0.72561863695 0.75168694275 0.77356233629 0.79216440667 0.45685295248 0.51573716537 0.56421707518 
0.60464862014 0.63877777351 0.66790778838 0.69302191562 0.26576171152 0.33975332011 0.40226393329 0.45538277901 0.50083690068 
0.54002084522 0.57404952988 0.60381225391 
