# vtk DataFile Version 4.1
vtk output
ASCII
DATASET POLYDATA
POINTS 1002 float
46.5442 95.5479 96.7118 48.8273 96.835 102.935 44.4194 101.497 92.8628 
43.8296 105.668 99.7026 51.226 100.646 98.114 49.3541 105.198 95.5294 
41.7745 93.839 100.823 39.1562 99.5549 98.8657 50.9098 105.368 102.649 
48.4095 98.808 90.1232 43.3991 100.526 103.992 43.2537 95.5362 94.0873 
46.5609 95.7804 97.6181 46.7942 95.7254 98.5718 47.2171 95.4672 99.3068 
47.6981 95.1941 99.8564 48.2295 94.9978 100.418 48.778 95.01 100.977 
49.1226 95.306 101.502 49.1695 95.7651 102.028 49.0065 96.2992 102.535 
46.7821 95.9934 96.8463 47.0073 96.5748 97.0411 47.2257 97.2405 97.2504 
47.5206 97.9448 97.4486 47.869 98.6786 97.702 48.3296 99.3068 97.946 
48.8981 99.8358 98.0737 49.552 100.274 98.0999 50.3742 100.519 98.0969 
46.276 95.3596 97.1558 46.0098 95.1039 97.7323 45.7819 94.57 98.3671 
45.4948 93.8798 98.8971 44.9887 93.2207 99.2506 44.2608 92.7326 99.6117 
43.5159 92.6886 100.027 42.8542 93.0316 100.353 42.2673 93.4498 100.603 
46.7972 95.3673 95.9856 47.0981 95.1466 95.3614 47.3945 95.0192 94.8114 
47.5552 95.2866 94.1448 47.6366 95.9525 93.3187 47.8705 96.552 92.4789 
48.2307 96.9385 91.7251 48.4263 97.457 91.1063 48.4428 98.1373 90.5721 
46.4812 94.9896 96.1598 46.4644 94.1681 95.6552 46.3426 93.2398 95.2033 
45.9365 92.4982 94.8553 45.3549 92.4686 94.5278 44.8853 93.0702 94.1369 
44.444 93.8598 93.8798 43.9854 94.5192 93.8452 43.5884 95.0676 93.9571 
49.2934 97.1235 102.681 49.6982 97.565 102.343 49.9388 98.2028 101.998 
50.0014 98.9834 101.638 50.049 99.7264 101.213 50.2369 100.248 100.723 
50.5159 100.529 100.16 50.7928 100.647 99.4755 51.0573 100.656 98.7425 
48.407 96.2922 102.909 47.8903 95.777 102.814 47.2864 95.2796 102.66 
46.543 94.8451 102.466 45.6982 94.5499 102.184 44.8602 94.2965 101.868 
44.0048 94.057 101.621 43.1304 93.8808 101.389 42.3685 93.8056 101.114 
48.9578 97.5947 103.124 49.0818 98.4553 103.234 49.2561 99.3783 103.312 
49.5319 100.372 103.332 49.8715 101.363 103.231 50.1897 102.381 103.106 
50.5499 103.34 103.067 50.9009 104.08 103.004 51.0096 104.728 102.833 
48.4369 97.0257 103.28 47.9504 97.287 103.624 47.3925 97.6003 103.969 
46.8355 97.9334 104.274 46.2072 98.352 104.464 45.5354 98.8926 104.462 
44.9861 99.4239 104.335 44.507 99.8623 104.214 43.9481 100.229 104.112 
44.426 101.827 93.5672 44.4056 102.183 94.3326 44.3594 102.612 95.1496 
44.2616 103.156 95.9128 44.0959 103.795 96.5406 43.9246 104.445 97.1304 
43.8146 104.975 97.7593 43.7388 105.342 98.3827 43.7424 105.555 99.0364 
44.737 101.845 92.6771 45.0825 102.233 92.5435 45.5171 102.615 92.5805 
46.0263 102.989 92.7966 46.4754 103.446 93.0563 46.9555 103.942 93.4162 
47.5936 104.353 93.9224 48.2681 104.715 94.4703 48.8496 105.01 95.0142 
44.084 101.357 93.5331 43.7081 101.15 94.2868 43.2688 100.953 95.0446 
42.6617 100.824 95.7401 41.935 100.685 96.3432 41.1868 100.505 96.8103 
40.4423 100.325 97.238 39.8397 100.078 97.78 39.4728 99.7842 98.3592 
44.6099 101.38 92.0185 44.8361 101.291 91.1283 45.0824 101.222 90.1782 
45.3363 101.089 89.3098 45.7831 100.904 88.8253 46.5011 100.673 88.8328 
47.217 100.312 89.0929 47.6968 99.8211 89.4073 48.0435 99.3084 89.7402 
44.189 101.087 92.5623 43.9428 100.63 92.3645 43.7157 100.074 92.3248 
43.489 99.411 92.3737 43.2423 98.7271 92.472 43.0323 97.9595 92.6818 
42.9442 97.078 92.9782 42.9867 96.3644 93.3087 43.1092 95.9073 93.7008 
44.4474 105.851 99.2908 45.0811 106.092 98.7989 45.6477 106.417 98.3069 
46.2253 106.636 97.8023 46.8636 106.665 97.2243 47.4977 106.62 96.6495 
48.1337 106.394 96.2858 48.7192 105.987 96.0154 49.1355 105.586 95.7563 
43.1884 105.379 99.6654 42.6088 104.948 99.6187 42.0719 104.383 99.5465 
41.4898 103.782 99.4484 40.9273 103.154 99.3617 40.4854 102.42 99.2403 
40.0952 101.642 99.1134 39.7294 100.889 99.0377 39.4216 100.187 98.9721 
44.364 105.855 100.136 44.9752 106.048 100.546 45.6584 106.208 100.897 
46.4312 106.28 101.233 47.2704 106.235 101.486 48.1957 106.072 101.665 
49.0915 105.928 101.924 49.7803 105.912 102.328 50.3552 105.755 102.593 
43.5927 105.505 100.333 43.457 105.161 100.908 43.4057 104.671 101.392 
43.3855 104.043 101.831 43.3345 103.416 102.334 43.2293 102.979 102.967 
43.1912 102.52 103.55 43.2421 101.852 103.872 43.3188 101.143 103.961 
51.7418 100.786 97.7707 51.9108 101.249 97.4199 51.7938 101.938 97.1597 
51.5417 102.623 97.0036 51.2595 103.246 96.7793 50.9651 103.84 96.4654 
50.5924 104.319 96.2244 50.1527 104.672 96.0095 49.7333 104.972 95.7613 
51.9835 100.797 98.5047 52.5885 101.126 98.9361 52.9307 101.671 99.422 
53.0773 102.391 100.044 53.1509 103.219 100.735 52.9792 103.992 101.357 
52.5821 104.527 101.802 52.121 104.881 102.121 51.585 105.153 102.392 
50.8252 100.536 97.5439 50.3486 100.419 96.9127 49.9233 100.269 96.0744 
49.6765 99.9744 95.0392 49.5818 99.5203 93.9714 49.4651 99.1208 92.9611 
49.3033 98.9093 91.9994 49.147 98.7855 91.1514 48.8847 98.7332 90.4957 
49.7337 105.631 96.1257 50.1462 106.113 96.687 50.542 106.517 97.3393 
50.9133 106.699 98.2315 51.2409 106.742 99.1763 51.4068 106.621 100.028 
51.4046 106.347 100.849 51.3212 106.077 101.626 51.1549 105.783 102.228 
49.2305 104.665 94.9869 49.1075 104.03 94.3371 48.9406 103.376 93.5691 
48.7803 102.739 92.6671 48.6973 102.117 91.6954 48.6672 101.582 90.7835 
48.7075 101.015 90.136 48.7553 100.243 89.9028 48.6516 99.4475 89.9481 
41.1459 94.1438 100.741 40.4831 94.5055 100.584 39.8605 94.9236 100.386 
39.405 95.4682 100.192 38.9848 96.0896 99.9739 38.5364 96.7863 99.7382 
38.3332 97.5919 99.5386 38.4697 98.3956 99.3306 38.7981 99.0408 99.091 
41.6449 94.2061 101.247 41.6024 94.7416 101.684 41.6504 95.3673 102.04 
41.7251 96.0503 102.393 41.8692 96.854 102.795 42.0987 97.5975 103.174 
42.3289 98.2568 103.535 42.6227 99.044 103.808 43.0212 99.8496 103.914 
41.5175 93.6626 100.378 41.2453 93.4639 99.8175 41.0304 93.304 99.0522 
41.0685 93.5382 98.3225 41.4524 94.1633 97.9075 42.0055 94.7754 97.4224 
42.5044 95.1459 96.618 42.8482 95.2868 95.6438 43.0955 95.3945 94.8192 
39.0173 99.7628 99.4823 38.9708 99.951 100.211 39.1336 100.094 101.002 
39.4354 100.22 101.828 39.7582 100.32 102.605 40.252 100.365 103.162 
41.0492 100.35 103.447 41.9042 100.339 103.611 42.6679 100.407 103.788 
39.1544 99.0121 98.4622 39.2498 98.4769 98.1008 39.503 97.9899 97.7174 
39.8865 97.5159 97.1911 40.3847 97.0709 96.6535 41.0391 96.7458 96.2585 
41.7272 96.4723 95.8273 42.3299 96.1712 95.2736 42.8337 95.8548 94.6772 
50.2116 105.057 102.91 49.3642 104.585 103.082 48.429 104.082 103.349 
47.5586 103.646 103.806 46.8607 103.293 104.354 46.0676 102.868 104.718 
45.1687 102.329 104.798 44.4705 101.69 104.606 43.9555 101.069 104.269 
47.8405 98.5514 90.2324 47.2329 98.2041 90.4617 46.6286 97.6927 90.7316 
46.0107 97.1066 91.0223 45.3948 96.6134 91.409 44.7044 96.071 91.7314 
44.0733 95.5845 91.9855 43.7055 95.3726 92.4718 43.5068 95.4262 93.2647 
46.8403 96.234 97.8209 47.1467 96.7789 98.0049 47.136 96.2064 98.7477 
47.502 97.408 98.1666 47.5359 96.7653 98.8514 47.5993 96.024 99.4245 
47.7656 98.2487 98.3998 47.8261 97.5867 99.0443 47.9224 96.7843 99.5907 
48.064 95.8939 100.025 48.0534 99.0985 98.6425 47.9831 98.6145 99.3081 
48.1001 97.8156 99.898 48.3036 96.8629 100.296 48.6041 95.8453 100.594 
48.5678 99.7585 98.7622 48.3902 99.4431 99.427 48.4051 98.7944 100.098 
48.5199 97.928 100.577 48.8336 96.9035 100.81 49.1581 95.9208 101.082 
49.2248 100.275 98.7843 49.0208 100.062 99.4667 48.9758 99.5607 100.131 
48.9389 98.8621 100.695 49.0593 97.975 101.014 49.3614 96.9725 101.244 
49.4675 96.1689 101.599 50.0641 100.573 98.768 49.7755 100.497 99.5045 
49.6256 100.189 100.168 49.5045 99.6728 100.729 49.4534 98.9533 101.16 
49.5734 98.0528 101.47 49.6563 97.1881 101.788 49.472 96.5816 102.175 
47.0344 95.9546 96.0971 47.3414 95.8948 95.4878 47.196 96.718 96.301 
47.5507 96.0137 94.8701 47.4395 96.8482 95.6377 47.3346 97.5494 96.5021 
47.6307 96.4875 94.0552 47.6342 97.1162 94.8536 47.5588 97.8122 95.7233 
47.6421 98.3227 96.6789 47.8307 97.0052 93.2204 47.8527 97.4636 94.0023 
47.852 98.0307 94.8632 47.8975 98.5989 95.8223 48.1192 98.9607 96.9162 
48.2868 97.2668 92.4618 48.2968 97.6769 93.3022 48.2785 98.1563 94.1303 
48.2315 98.7553 94.9977 48.3841 99.1921 96.0376 48.6738 99.4808 97.1636 
48.7235 97.5389 91.7026 48.8352 97.8465 92.5773 48.8392 98.2596 93.4767 
48.7279 98.819 94.3322 48.6838 99.3741 95.2634 48.9205 99.7002 96.3457 
49.2651 99.965 97.3405 48.8874 98.076 91.0233 49.1294 98.2269 91.7688 
49.2352 98.4781 92.6992 49.2522 98.8776 93.6545 49.1755 99.4348 94.6222 
49.2433 99.8801 95.67 49.5753 100.122 96.672 49.9988 100.319 97.4617 
48.9728 99.4792 90.5297 48.8838 100.305 90.7936 49.1303 99.5388 91.3786 
48.8428 101.015 91.288 49.0811 100.346 91.8312 49.3483 99.6319 92.3354 
48.9463 101.618 91.9969 49.1739 101.108 92.4282 49.4296 100.503 92.8633 
49.6454 99.8747 93.353 49.0721 102.301 92.8837 49.3522 101.827 93.1956 
49.6101 101.352 93.5302 49.8658 100.764 93.9054 49.9371 100.232 94.4393 
49.2332 103.022 93.7921 49.5363 102.588 94.0744 49.8468 102.108 94.3535 
50.1665 101.561 94.6155 50.3666 100.963 94.994 50.2769 100.506 95.5474 
49.4387 103.694 94.5682 49.7698 103.316 94.8317 50.1082 102.868 95.1075 
50.4754 102.305 95.3731 50.7789 101.684 95.6152 50.8902 101.083 95.9785 
50.7257 100.649 96.4784 49.6 104.351 95.2248 49.9874 103.996 95.468 
50.3692 103.602 95.6874 50.7263 103.084 95.9657 51.0508 102.468 96.2424 
51.3067 101.82 96.444 51.4179 101.171 96.7614 51.2445 100.726 97.1852 
52.3072 101.194 98.1595 52.3058 101.884 97.8784 52.7049 101.784 98.615 
52.0942 102.671 97.7141 52.629 102.643 98.3826 52.9379 102.556 99.0974 
51.7822 103.377 97.5541 52.3679 103.479 98.2312 52.862 103.496 98.8722 
53.1082 103.407 99.7209 51.4899 104.049 97.2507 52.0056 104.228 97.9858 
52.556 104.371 98.6472 52.9986 104.389 99.4478 53.111 104.261 100.423 
51.1581 104.677 96.9162 51.669 104.943 97.6369 52.1436 105.138 98.3555 
52.642 105.227 99.1818 52.8878 105.121 100.125 52.7921 104.855 101.043 
[...]
POINT_DATA 1002
SCALARS _paraPhi double
LOOKUP_TABLE default
6.2831853072 3.1415926536 6.2831853072 3.1415926536 4.7123889804 4.7123889804 1.5707963268 1.5707963268 3.6951670125 
5.7296109483 2.5880182947 0.5535743589 6.2831853072 6.2831853072 6.2831853072 6.2831853072 3.1415926536 3.1415926536 
3.1415926536 3.1415926536 3.1415926536 6.1053039672 5.898798347 5.6768734901 5.4599499503 5.2659633393 5.1032165617 
4.9713148346 4.8656852733 4.7809517865 0.17788134 0.38438696014 0.60631181711 0.82323535693 1.0172219679 1.1799687454 
1.3118704726 1.4175000338 1.5022335207 6.1892828907 6.1070320098 6.035312792 5.9728339911 5.9183214791 5.8706119594 
5.8286879411 5.7916808611 5.7588591896 0.093902416448 0.17615329733 0.2478725152 0.31035131605 0.36486382811 0.41257334776 
0.45449736604 0.4915044461 0.52432611754 3.3194739936 3.5259796137 3.7479044707 3.9648280105 4.1588146215 4.321561399 
4.4534631262 4.5590926874 4.6438261743 2.9637113136 2.7572056934 2.5352808365 2.3183572967 2.1243706857 1.9616239082 
1.829722181 1.7240926197 1.6393591329 3.23549507 3.3177459509 3.3894651688 3.4519439696 3.5064564817 3.5541660013 
3.5960900196 3.6330970997 3.6659187711 3.0476902371 2.9654393563 2.8937201384 2.8312413375 2.7767288255 2.7290193058 
2.6870952876 2.6500882075 2.617266536 6.2831853072 6.2831853072 6.2831853072 6.2831853072 3.1415926536 3.1415926536 
3.1415926536 3.1415926536 3.1415926536 6.1053039672 5.898798347 5.6768734901 5.4599499503 5.2659633393 5.1032165617 
4.9713148346 4.8656852733 4.7809517865 0.17788134 0.38438696014 0.60631181711 0.82323535693 1.0172219679 1.1799687454 
1.3118704726 1.4175000338 1.5022335207 6.1892828907 6.1070320098 6.035312792 5.9728339911 5.9183214791 5.8706119594 
5.8286879411 5.7916808611 5.7588591896 0.093902416448 0.17615329733 0.2478725152 0.31035131605 0.36486382811 0.41257334776 
0.45449736604 0.4915044461 0.52432611754 3.3194739936 3.5259796137 3.7479044707 3.9648280105 4.1588146215 4.321561399 
4.4534631262 4.5590926874 4.6438261743 2.9637113136 2.7572056934 2.5352808365 2.3183572967 2.1243706857 1.9616239082 
1.829722181 1.7240926197 1.6393591329 3.23549507 3.3177459509 3.3894651688 3.4519439696 3.5064564817 3.5541660013 
3.5960900196 3.6330970997 3.6659187711 3.0476902371 2.9654393563 2.8937201384 2.8312413375 2.7767288255 2.7290193058 
2.6870952876 2.6500882075 2.617266536 4.7123889804 4.7123889804 4.7123889804 4.7123889804 4.7123889804 4.7123889804 
4.7123889804 4.7123889804 4.7123889804 4.6087898617 4.4991390697 4.3857031936 4.2712800401 4.1588146215 4.0509635631 
3.94975894 3.8564636551 3.7716124825 4.8159880991 4.9256388911 5.0390747672 5.1534979207 5.2659633393 5.3738143976 
5.4750190208 5.5683143056 5.6531654782 4.6087898617 4.4991390697 4.3857031936 4.2712800401 4.1588146215 4.0509635631 
3.94975894 3.8564636551 3.7716124825 4.8159880991 4.9256388911 5.0390747672 5.1534979207 5.2659633393 5.3738143976 
5.4750190208 5.5683143056 5.6531654782 1.5707963268 1.5707963268 1.5707963268 1.5707963268 1.5707963268 1.5707963268 
1.5707963268 1.5707963268 1.5707963268 1.6743954455 1.7840462375 1.8974821136 2.0119052671 2.1243706857 2.232221744 
2.3334263672 2.426721652 2.5115728246 1.4671972081 1.3575464161 1.24411054 1.1296873865 1.0172219679 0.90937090954 
0.80816628637 0.71487100155 0.63001982895 1.6743954455 1.7840462375 1.8974821136 2.0119052671 2.1243706857 2.232221744 
2.3334263672 2.426721652 2.5115728246 1.4671972081 1.3575464161 1.24411054 1.1296873865 1.0172219679 0.90937090954 
0.80816628637 0.71487100155 0.63001982895 3.6007720849 3.4966939854 3.3839471039 3.2645756454 3.1415926536 3.0186096618 
2.8992382033 2.7864913217 2.6824132222 5.8240058758 5.9280839753 6.0408308569 6.1602023154 6.2831853072 0.12298299178 
0.2423544503 0.35510133185 0.45917943135 6.0560271438 5.7885595667 5.9702140275 5.5125918794 5.6029703303 5.7885595667 
5.2659633393 5.2659633393 5.2659633393 5.2659633393 5.0674903122 5.0120975802 4.9155579264 4.7123889804 4.1588146215 
4.9155579264 4.8353719722 4.7123889804 4.5092200343 4.1588146215 3.6362183941 4.8004512023 4.7123889804 4.5894059886 
4.4126803806 4.1588146215 3.8218076305 3.4545639333 4.7123889804 4.6243267584 4.5092200343 4.3572876485 4.1588146215 
3.9121860814 3.6362183941 3.368750817 6.0174235957 5.9434319871 5.8263323547 5.8809213739 5.7674481418 5.6279784266 
5.8278025282 5.718968232 5.5891129425 5.4372443565 5.7823484065 5.678536687 5.5575666702 5.4192596322 5.2659633393 
5.743164462 5.6444075337 5.5314983644 5.4046708639 5.2659633393 5.1195510325 5.7091357773 5.6152775188 5.5096229709 
5.3926039573 5.2659633393 5.1329233157 4.9978930058 5.6793730533 5.5901633916 5.4910209005 5.3824597928 5.2659633393 
5.1440684722 5.0201624502 4.8979782167 5.5683143056 5.4750190208 5.4750190208 5.3738143976 5.3738143976 5.3738143976 
5.2659633393 5.2659633393 5.2659633393 5.2659633393 5.1534979207 5.1534979207 5.1534979207 5.1534979207 5.1534979207 
5.0390747672 5.0390747672 5.0390747672 5.0390747672 5.0390747672 5.0390747672 4.9256388911 4.9256388911 4.9256388911 
4.9256388911 4.9256388911 4.9256388911 4.9256388911 4.8159880991 4.8159880991 4.8159880991 4.8159880991 4.8159880991 
4.8159880991 4.8159880991 4.8159880991 4.6087898617 4.6087898617 4.4991390697 4.6087898617 4.4991390697 4.3857031936 
4.6087898617 4.4991390697 4.3857031936 4.2712800401 4.6087898617 4.4991390697 4.3857031936 4.2712800401 4.1588146215 
4.6087898617 4.4991390697 4.3857031936 4.2712800401 4.1588146215 4.0509635631 4.6087898617 4.4991390697 4.3857031936 
4.2712800401 4.1588146215 4.0509635631 3.94975894 4.6087898617 4.4991390697 4.3857031936 4.2712800401 4.1588146215 
4.0509635631 3.94975894 3.8564636551 4.526799744 4.4046155105 4.426884955 4.2807094886 4.2918546451 4.3052269283 
4.1588146215 4.1588146215 4.1588146215 4.1588146215 4.042318168 4.0321740035 4.0201070968 4.0055183285 3.9875336042 
3.9337570603 3.9151549899 3.8932795963 3.8672112905 3.8356650183 3.7967995342 3.8346145692 3.809500442 3.7803704271 
3.7462412737 3.7058097288 3.657329819 3.5984456061 3.7454049075 3.7156421835 3.6816134988 3.6424295543 3.5969754326 
3.5438565869 3.4813459737 3.4073543651 3.5642842451 3.4524645613 3.5233842518 3.3320300872 3.403123212 3.4773852225 
3.20576226 3.2746326772 3.348015857 3.4255060145 3.0774230472 3.1415926536 3.2112816139 3.2864685043 3.3668817272 
2.95115522 3.00855263 3.0719036933 3.1415926536 3.2178377658 3.3005964304 2.8307207459 2.8800620952 2.9351694502 
2.9967168029 3.0653475414 3.1415926536 3.225752376 2.718901062 2.7598010554 2.8058000847 2.8576792927 2.91630358 
2.9825888767 3.0574329311 3.1415926536 3.5642842451 3.5233842518 3.4524645613 3.4773852225 3.403123212 3.3320300872 
3.4255060145 3.348015857 3.2746326772 3.20576226 3.3668817272 3.2864685043 3.2112816139 3.1415926536 3.0774230472 
3.3005964304 3.2178377658 3.1415926536 3.0719036933 3.00855263 2.95115522 3.225752376 3.1415926536 3.0653475414 
2.9967168029 2.9351694502 2.8800620952 2.8307207459 3.1415926536 3.0574329311 2.9825888767 2.91630358 2.8576792927 
2.8058000847 2.7598010554 2.718901062 4.526799744 4.426884955 4.4046155105 4.3052269283 4.2918546451 4.2807094886 
4.1588146215 4.1588146215 4.1588146215 4.1588146215 3.9875336042 4.0055183285 4.0201070968 4.0321740035 4.042318168 
3.7967995342 3.8356650183 3.8672112905 3.8932795963 3.9151549899 3.9337570603 3.5984456061 3.657329819 3.7058097288 
3.7462412737 3.7803704271 3.809500442 3.8346145692 3.4073543651 3.4813459737 3.5438565869 3.5969754326 3.6424295543 
3.6816134988 3.7156421835 3.7454049075 4.7123889804 4.8004512023 4.6243267584 4.9155579264 4.7123889804 4.5092200343 
5.0674903122 4.8353719722 4.5894059886 4.3572876485 5.2659633393 5.0120975802 4.7123889804 4.4126803806 4.1588146215 
5.5125918794 5.2659633393 4.9155579264 4.5092200343 4.1588146215 3.9121860814 5.7885595667 5.6029703303 5.2659633393 
4.7123889804 4.1588146215 3.8218076305 3.6362183941 6.0560271438 5.9702140275 5.7885595667 5.2659633393 4.1588146215 
3.6362183941 3.4545639333 3.368750817 0.22715816343 0.49462574053 0.3129712797 0.77059342779 0.68021497688 0.49462574053 
1.0172219679 1.0172219679 1.0172219679 1.0172219679 1.2156949949 1.271087727 1.3676273807 1.5707963268 2.1243706857 
1.3676273807 1.447813335 1.5707963268 1.7739652728 2.1243706857 2.6469669131 1.4827341049 1.5707963268 1.6937793186 
1.8705049266 2.1243706857 2.4613776767 2.8286213739 1.5707963268 1.6588585487 1.7739652728 1.9258976586 2.1243706857 
2.3709992258 2.6469669131 2.9144344902 1.7563855631 1.8785697967 1.8563003522 2.0024758186 1.9913306621 1.9779583789 
2.1243706857 2.1243706857 2.1243706857 2.1243706857 2.2408671392 2.2510113037 2.2630782103 2.2776669786 2.295651703 
2.3494282469 2.3680303173 2.3899057108 2.4159740166 2.4475202889 2.486385773 2.448570738 2.4736848652 2.5028148801 
2.5369440334 2.5773755784 2.6258554882 2.6847397011 2.5377803997 2.5675431237 2.6015718084 2.6407557529 2.6862098746 
2.7393287203 2.8018393335 2.8758309421 1.6743954455 1.6743954455 1.7840462375 1.6743954455 1.7840462375 1.8974821136 
1.6743954455 1.7840462375 1.8974821136 2.0119052671 1.6743954455 1.7840462375 1.8974821136 2.0119052671 2.1243706857 
1.6743954455 1.7840462375 1.8974821136 2.0119052671 2.1243706857 2.232221744 1.6743954455 1.7840462375 1.8974821136 
2.0119052671 2.1243706857 2.232221744 2.3334263672 1.6743954455 1.7840462375 1.8974821136 2.0119052671 2.1243706857 
2.232221744 2.3334263672 2.426721652 1.4671972081 1.3575464161 1.4671972081 1.24411054 1.3575464161 1.4671972081 
1.1296873865 1.24411054 1.3575464161 1.4671972081 1.0172219679 1.1296873865 1.24411054 1.3575464161 1.4671972081 
0.90937090954 1.0172219679 1.1296873865 1.24411054 1.3575464161 1.4671972081 0.80816628637 0.90937090954 1.0172219679 
1.1296873865 1.24411054 1.3575464161 1.4671972081 0.71487100155 0.80816628637 0.90937090954 1.0172219679 1.1296873865 
1.24411054 1.3575464161 1.4671972081 0.60381225391 0.57404952988 0.69302191562 0.54002084522 0.66790778838 0.79216440667 
0.50083690068 0.63877777351 0.77356233629 0.90072551443 0.45538277901 0.60464862014 0.75168694275 0.89058134991 1.0172219679 
0.40226393329 0.56421707518 0.72561863695 0.87851444325 1.0172219679 1.139116835 0.33975332011 0.51573716537 0.69407236469 
0.86392567495 1.0172219679 1.1502619915 1.2630228569 0.26576171152 0.45685295248 0.6552068806 0.84594095064 1.0172219679 
1.1636342747 1.2852923014 1.3852070904 0.22715816343 0.3129712797 0.49462574053 0.49462574053 0.68021497688 0.77059342779 
1.0172219679 1.0172219679 1.0172219679 1.0172219679 2.1243706857 1.5707963268 1.3676273807 1.271087727 1.2156949949 
2.6469669131 2.1243706857 1.7739652728 1.5707963268 1.447813335 1.3676273807 2.8286213739 2.4613776767 2.1243706857 
1.8705049266 1.6937793186 1.5707963268 1.4827341049 2.9144344902 2.6469669131 2.3709992258 2.1243706857 1.9258976586 
1.7739652728 1.6588585487 1.5707963268 1.7563855631 1.8563003522 1.8785697967 1.9779583789 1.9913306621 2.0024758186 
2.1243706857 2.1243706857 2.1243706857 2.1243706857 2.295651703 2.2776669786 2.2630782103 2.2510113037 2.2408671392 
2.486385773 2.4475202889 2.4159740166 2.3899057108 2.3680303173 2.3494282469 2.6847397011 2.6258554882 2.5773755784 
2.5369440334 2.5028148801 2.4736848652 2.448570738 2.8758309421 2.8018393335 2.7393287203 2.6862098746 2.6407557529 
2.6015718084 2.5675431237 2.5377803997 5.8604937156 5.901393709 5.9723133995 5.9473927383 6.0216547488 6.0927478736 
5.9992719463 6.0767621038 6.1501452836 6.2190157008 6.0578962336 6.1383094565 6.2134963469 0 0.064169606361 
6.1241815303 6.206940195 6.2831853072 0.069688960264 0.13304002361 0.19043743361 6.1990255847 0 0.07624511221 
0.14487585072 0.20642320337 0.26153055843 0.3108719077 0 0.084159722458 0.15900377685 0.22528907359 0.28391336087 
0.3357925689 0.38179159818 0.42269159155 5.8604937156 5.9723133995 5.901393709 6.0927478736 6.0216547488 5.9473927383 
6.2190157008 6.1501452836 6.0767621038 5.9992719463 0.064169606361 0 6.2134963469 6.1383094565 6.0578962336 
0.19043743361 0.13304002361 0.069688960264 6.2831853072 6.206940195 6.1241815303 0.3108719077 0.26153055843 0.20642320337 
0.14487585072 0.07624511221 6.2831853072 6.1990255847 0.42269159155 0.38179159818 0.3357925689 0.28391336087 0.22528907359 
0.15900377685 0.084159722458 0 5.6793730533 5.7091357773 5.5901633916 5.743164462 5.6152775188 5.4910209005 
5.7823484065 5.6444075337 5.5096229709 5.3824597928 5.8278025282 5.678536687 5.5314983644 5.3926039573 5.2659633393 
5.8809213739 5.718968232 5.5575666702 5.4046708639 5.2659633393 5.1440684722 5.9434319871 5.7674481418 5.5891129425 
5.4192596322 5.2659633393 5.1329233157 5.0201624502 6.0174235957 5.8263323547 5.6279784266 5.4372443565 5.2659633393 
5.1195510325 4.9978930058 4.8979782167 1.3852070904 1.2852923014 1.2630228569 1.1636342747 1.1502619915 1.139116835 
1.0172219679 1.0172219679 1.0172219679 1.0172219679 0.84594095064 0.86392567495 0.87851444325 0.89058134991 0.90072551443 
0.6552068806 0.69407236469 0.72561863695 0.75168694275 0.77356233629 0.79216440667 0.45685295248 0.51573716537 0.56421707518 
0.60464862014 0.63877777351 0.66790778838 0.69302191562 0.26576171152 0.33975332011 0.40226393329 0.45538277901 0.50083690068 
0.54002084522 0.57404952988 0.60381225391 
