# vtk DataFile Version 4.1
vtk output
ASCII
DATASET POLYDATA
POINTS 1002 float
46.2125 95.9646 95.0811 48.0775 99.1264 103.18 45.1256 102.025 90.4882 
45.5511 105.193 98.9587 51.0217 101.127 98.1821 50.144 103.888 95.1237 
40.8805 97.6243 100.213 40.0672 101.248 97.2584 52.321 104.678 103.651 
49.3882 98.3901 90.305 43.2852 102.273 104.648 43.0017 96.1431 92.4274 
46.1123 96.8098 95.5507 46.0739 97.5786 96.224 46.0562 98.2688 97.0697 
46.0536 98.8644 97.9984 46.1007 99.3373 99.019 46.3028 99.5689 100.135 
46.6801 99.5556 101.168 47.1726 99.3977 101.967 47.6715 99.2142 102.616 
46.4738 96.5744 95.1307 46.8137 97.2396 95.2749 47.2 97.9286 95.5024 
47.6468 98.5687 95.8111 48.1266 99.1954 96.1574 48.5838 99.8385 96.5139 
49.0463 100.405 96.8919 49.6248 100.779 97.3087 50.3276 100.975 97.7533 
45.8921 96.0075 95.3412 45.5313 96.1716 95.7021 45.1285 96.3518 96.1922 
44.6662 96.5349 96.7797 44.1234 96.7654 97.3681 43.503 96.9832 97.9615 
42.816 97.1806 98.5799 42.1185 97.3518 99.2042 41.4602 97.4843 99.7595 
46.4961 95.4492 94.7417 46.8288 95.0761 94.4695 47.1933 95.0243 94.1193 
47.6543 95.1456 93.6363 48.1857 95.387 93.0891 48.6407 95.845 92.4832 
48.9621 96.4303 91.8267 49.1771 97.056 91.2285 49.3136 97.7176 90.7317 
46.2352 94.8653 94.9138 46.3797 93.4816 94.888 46.3566 92.3855 94.8786 
45.9474 92.2444 94.6322 45.3735 92.9673 94.1249 44.8611 93.7039 93.587 
44.2894 94.3444 93.1275 43.7542 94.9945 92.768 43.3437 95.6017 92.5454 
48.5889 99.283 102.868 49.0269 99.568 102.53 49.3341 99.9856 102.206 
49.6061 100.399 101.828 49.9173 100.72 101.365 50.1938 100.961 100.866 
50.4473 101.08 100.216 50.7288 101.068 99.451 50.9342 101.062 98.7722 
47.2992 99.0153 103.113 46.4841 98.8723 102.985 45.7118 98.6137 102.819 
44.9862 98.3444 102.62 44.2224 98.1652 102.332 43.3794 98.0306 101.889 
42.5885 97.8897 101.404 41.9435 97.7499 101.012 41.386 97.6458 100.642 
48.7172 99.3113 103.54 49.3318 99.6863 103.895 49.9534 100.162 104.205 
50.6223 100.63 104.495 51.2521 101.211 104.694 51.7887 101.979 104.693 
52.1598 102.832 104.528 52.3328 103.577 104.29 52.3755 104.182 103.983 
47.8903 99.1297 103.684 47.5493 99.2812 104.165 47.0833 99.5306 104.596 
46.5341 99.7751 104.961 45.8409 100.048 105.234 45.0553 100.503 105.378 
44.4088 101.068 105.366 43.9704 101.557 105.207 43.6164 101.949 104.935 
45.1128 102.319 91.1079 45.0926 102.632 91.8648 45.1064 102.929 92.8283 
45.1368 103.249 93.8809 45.1497 103.662 94.8654 45.1902 104.089 95.7954 
45.2743 104.443 96.7016 45.3443 104.762 97.5144 45.4236 105.029 98.2372 
45.5835 102.275 90.3474 46.061 102.524 90.2752 46.5528 102.82 90.3027 
47.0935 103.093 90.5731 47.6527 103.226 91.1635 48.1959 103.314 91.9822 
48.7226 103.454 92.8627 49.2153 103.621 93.6888 49.689 103.774 94.4412 
44.6877 101.94 91.0656 44.2345 101.845 91.7363 43.7509 101.762 92.4984 
43.1966 101.705 93.2846 42.5748 101.656 94.0349 41.9419 101.582 94.7133 
41.3642 101.496 95.3834 40.8482 101.412 96.0569 40.4045 101.328 96.6783 
45.3603 101.898 89.7617 45.531 101.772 88.9511 45.7414 101.611 88.3468 
46.2907 101.348 88.3181 47.0517 100.998 88.6596 47.686 100.547 88.9874 
48.2031 100.015 89.3135 48.6581 99.4911 89.6847 49.0504 98.9519 90.0105 
44.7966 101.671 90.2627 44.4269 101.286 90.108 44.0305 100.786 90.103 
43.6303 100.127 90.2359 43.3046 99.3691 90.4899 43.0961 98.6006 90.8684 
42.9521 97.851 91.2793 42.8701 97.1727 91.6523 42.9065 96.6084 92.0455 
46.0413 105.354 98.5998 46.5468 105.5 98.2118 47.081 105.592 97.7724 
47.6862 105.578 97.2757 48.2835 105.41 96.8667 48.7837 105.091 96.5629 
49.2168 104.74 96.2229 49.6004 104.438 95.8258 49.9074 104.171 95.4514 
44.9616 104.949 98.8536 44.3582 104.659 98.7673 43.7422 104.301 98.6338 
43.149 103.862 98.4283 42.5471 103.409 98.1943 41.9138 102.985 97.9782 
41.3442 102.535 97.7935 40.8672 102.063 97.6147 40.4384 101.634 97.4292 
46.041 105.402 99.5074 46.5862 105.604 100.09 47.1907 105.743 100.651 
47.9115 105.806 101.265 48.7175 105.819 101.894 49.5442 105.776 102.413 
50.3589 105.63 102.855 51.1305 105.389 103.235 51.8041 105.064 103.489 
45.3405 105.128 99.6319 45.1344 104.984 100.348 44.9287 104.783 101.045 
44.7013 104.557 101.745 44.4702 104.248 102.405 44.2583 103.831 102.992 
44.0158 103.441 103.511 43.7393 103.087 103.972 43.4813 102.7 104.362 
51.4193 101.337 98.0293 51.8292 101.542 97.7358 52.2234 101.733 97.2864 
52.4218 102.094 96.7595 52.3093 102.641 96.3493 51.9655 103.083 96.0692 
51.515 103.361 95.8044 51.0383 103.569 95.5579 50.5772 103.745 95.3329 
51.6601 101.248 98.9335 52.2616 101.439 99.6386 52.7786 101.717 100.311 
53.2676 102.03 101.012 53.7145 102.42 101.696 53.9237 103.009 102.366 
53.8144 103.689 102.949 53.4311 104.175 103.335 52.8872 104.451 103.531 
50.6824 101.072 97.2849 50.417 100.866 96.3059 50.2225 100.488 95.3593 
50.0719 100.023 94.4105 49.9656 99.5532 93.4187 49.9471 99.0599 92.5332 
50.0579 98.5576 91.7409 50.1151 98.226 91.0194 49.8965 98.1866 90.5108 
50.4658 104.155 95.989 50.8026 104.405 96.8854 51.1838 104.666 97.7974 
51.5703 104.919 98.7328 51.8918 105.134 99.6632 52.1724 105.247 100.609 
52.4488 105.258 101.618 52.568 105.164 102.528 52.5067 104.961 103.191 
50.0778 103.5 94.3869 50.0067 103.093 93.5419 49.9646 102.709 92.5713 
49.9399 102.265 91.5991 50.0016 101.795 90.7088 50.2062 101.239 89.9094 
50.3135 100.428 89.492 50.1458 99.5615 89.5914 49.7877 98.9039 89.95 
40.2475 97.7761 100.153 39.6448 98.0045 100.043 39.073 98.2798 99.8679 
38.5907 98.6476 99.5638 38.3813 99.1638 99.1651 38.5865 99.7087 98.7369 
39.0094 100.119 98.3289 39.3941 100.493 97.9479 39.7233 100.894 97.5751 
40.6573 97.8432 100.858 40.5162 98.1567 101.51 40.4868 98.4747 102.238 
40.5448 98.8256 102.978 40.7 99.2795 103.613 41.0332 99.8527 104.095 
41.5649 100.577 104.358 42.1664 101.296 104.499 42.7408 101.844 104.613 
40.7707 97.5293 99.4488 40.8014 97.394 98.6185 40.9666 97.1289 97.796 
41.237 96.8126 96.9477 41.5839 96.5327 96.0401 41.9869 96.3145 95.1601 
42.3684 96.1747 94.3641 42.6609 96.0895 93.6491 42.8545 96.0697 93.0058 
40.032 101.391 97.9921 40.0595 101.531 98.8495 40.1734 101.652 99.8304 
40.3705 101.819 100.816 40.6505 102.005 101.732 41.0282 102.124 102.576 
41.5038 102.212 103.309 42.058 102.283 103.88 42.6657 102.304 104.306 
39.9319 100.918 96.6957 39.8445 100.586 96.0185 39.8727 100.164 95.3325 
40.1122 99.5863 94.7631 40.5518 98.9309 94.3022 41.0606 98.3546 93.8356 
41.604 97.773 93.4439 42.1126 97.1792 93.0935 42.584 96.6339 92.7441 
51.7331 104.6 103.962 50.9922 104.471 104.253 50.0911 104.271 104.487 
49.0474 104.034 104.676 47.9916 103.703 104.796 47.02 103.292 104.808 
46.0052 103.003 104.805 44.9671 102.773 104.844 44.0562 102.518 104.79 
48.7393 98.212 90.5151 48.1016 97.9367 90.7143 47.4834 97.5522 90.8809 
46.8345 97.1128 91.0297 46.1127 96.7385 91.2378 45.3579 96.4944 91.4844 
44.6166 96.2361 91.6279 43.9404 96.0192 91.7302 43.399 95.9983 91.9853 
46.4203 97.3963 95.6949 46.7954 98.0114 95.9496 46.4232 98.1265 96.4753 
47.2654 98.585 96.2927 46.8722 98.6554 96.8142 46.4746 98.758 97.3882 
47.7755 99.1781 96.6757 47.3684 99.2186 97.2076 46.9383 99.3071 97.7772 
46.521 99.3465 98.3879 48.2541 99.8302 97.0687 47.8707 99.8462 97.6448 
47.4227 99.9068 98.2468 47.0177 99.8782 98.8881 46.6844 99.7167 99.525 
48.7119 100.437 97.4751 48.3924 100.42 98.1282 48.0573 100.371 98.7991 
47.681 100.265 99.4822 47.3875 100.018 100.12 47.0928 99.7359 100.672 
49.2956 100.845 97.9055 48.9762 100.862 98.6178 48.7633 100.73 99.3604 
48.526 100.502 100.047 48.2438 100.222 100.662 47.9876 99.8858 101.147 
47.6289 99.5901 101.576 50.0923 101.002 98.3534 49.7754 101.063 99.0725 
49.5137 101.019 99.8507 49.325 100.793 100.511 49.0725 100.498 101.065 
48.8087 100.146 101.519 48.5462 99.7403 101.888 48.1647 99.4047 102.254 
46.794 96.1929 94.7819 47.1482 95.9687 94.4455 47.172 96.9722 94.8776 
47.5472 95.9395 94.0359 47.5614 96.8229 94.4677 47.5691 97.7782 95.0438 
48.014 96.0646 93.5353 47.9753 96.8361 94.0047 47.9708 97.7003 94.5666 
47.9944 98.5307 95.3068 48.5095 96.3488 92.9597 48.4145 97.0002 93.4866 
48.4158 97.7263 94.0797 48.3985 98.5149 94.7989 48.4701 99.223 95.6424 
48.9984 96.7246 92.291 48.8571 97.2617 92.8799 48.8392 97.8738 93.5361 
48.8551 98.5581 94.287 48.8676 99.2576 95.1308 48.9501 99.8841 96.0128 
49.4332 97.1282 91.6162 49.3526 97.5271 92.2166 49.2227 98.093 92.9138 
49.2477 98.6841 93.7025 49.2877 99.31 94.591 49.3432 99.9206 95.5016 
49.4531 100.43 96.408 49.7344 97.6154 91.0268 49.8156 97.8205 91.5921 
49.6608 98.3093 92.3061 49.586 98.8664 93.09 49.6503 99.3996 94.0033 
49.7341 99.9499 94.9582 49.8506 100.457 95.8862 50.0449 100.804 96.8351 
50.1982 98.7915 90.2927 50.3964 99.6081 90.1508 50.3192 98.9163 90.9926 
50.3765 100.603 90.3966 50.3945 99.8304 91.1392 50.2582 99.2984 91.8951 
50.2823 101.41 91.0583 50.4445 100.786 91.5884 50.468 100.16 92.1986 
50.2728 99.7747 92.8261 50.2903 101.968 91.9062 50.5867 101.536 92.2895 
50.7634 100.987 92.7101 50.671 100.53 93.2578 50.3847 100.227 93.8785 
50.358 102.479 92.8276 50.7538 102.149 93.1332 51.0826 101.701 93.4223 
51.145 101.23 93.8215 50.9109 100.873 94.4184 50.5751 100.641 94.9538 
50.412 102.925 93.763 50.8438 102.693 94.0306 51.2944 102.347 94.2557 
51.5838 101.875 94.5224 51.5417 101.414 95.0024 51.2448 101.133 95.5591 
50.8337 100.995 95.969 50.5027 103.336 94.5936 50.9458 103.146 94.8407 
51.4119 102.893 95.0811 51.8348 102.514 95.3163 52.0482 101.989 95.6611 
51.9421 101.548 96.1835 51.5699 101.36 96.6698 51.1095 101.234 97.0289 
52.0311 101.543 98.7458 52.407 101.844 98.3783 52.6021 101.821 99.3923 
52.7026 102.191 97.843 52.9322 102.23 98.9636 53.09 102.176 100.059 
52.7258 102.725 97.3574 53.0811 102.762 98.447 53.314 102.745 99.6575 
53.5093 102.62 100.761 52.4655 103.271 97.0325 52.9197 103.362 98.052 
53.2383 103.397 99.2203 53.5015 103.39 100.402 53.7936 103.248 101.426 
52.0091 103.615 96.7433 52.5048 103.805 97.755 52.8793 103.887 98.8634 
53.175 103.985 100.039 53.564 104.061 101.1 53.8538 103.957 102.064 
[...]
POINT_DATA 1002
SCALARS _paraPhi double
LOOKUP_TABLE default
6.2831853072 3.1415926536 6.2831853072 3.1415926536 4.7123889804 4.7123889804 1.5707963268 1.5707963268 3.6951670125 
5.7296109483 2.5880182947 0.5535743589 6.2831853072 6.2831853072 6.2831853072 6.2831853072 3.1415926536 3.1415926536 
3.1415926536 3.1415926536 3.1415926536 6.1053039672 5.898798347 5.6768734901 5.4599499503 5.2659633393 5.1032165617 
4.9713148346 4.8656852733 4.7809517865 0.17788134 0.38438696014 0.60631181711 0.82323535693 1.0172219679 1.1799687454 
1.3118704726 1.4175000338 1.5022335207 6.1892828907 6.1070320098 6.035312792 5.9728339911 5.9183214791 5.8706119594 
5.8286879411 5.7916808611 5.7588591896 0.093902416448 0.17615329733 0.2478725152 0.31035131605 0.36486382811 0.41257334776 
0.45449736604 0.4915044461 0.52432611754 3.3194739936 3.5259796137 3.7479044707 3.9648280105 4.1588146215 4.321561399 
4.4534631262 4.5590926874 4.6438261743 2.9637113136 2.7572056934 2.5352808365 2.3183572967 2.1243706857 1.9616239082 
1.829722181 1.7240926197 1.6393591329 3.23549507 3.3177459509 3.3894651688 3.4519439696 3.5064564817 3.5541660013 
3.5960900196 3.6330970997 3.6659187711 3.0476902371 2.9654393563 2.8937201384 2.8312413375 2.7767288255 2.7290193058 
2.6870952876 2.6500882075 2.617266536 6.2831853072 6.2831853072 6.2831853072 6.2831853072 3.1415926536 3.1415926536 
3.1415926536 3.1415926536 3.1415926536 6.1053039672 5.898798347 5.6768734901 5.4599499503 5.2659633393 5.1032165617 
4.9713148346 4.8656852733 4.7809517865 0.17788134 0.38438696014 0.60631181711 0.82323535693 1.0172219679 1.1799687454 
1.3118704726 1.4175000338 1.5022335207 6.1892828907 6.1070320098 6.035312792 5.9728339911 5.9183214791 5.8706119594 
5.8286879411 5.7916808611 5.7588591896 0.093902416448 0.17615329733 0.2478725152 0.31035131605 0.36486382811 0.41257334776 
0.45449736604 0.4915044461 0.52432611754 3.3194739936 3.5259796137 3.7479044707 3.9648280105 4.1588146215 4.321561399 
4.4534631262 4.5590926874 4.6438261743 2.9637113136 2.7572056934 2.5352808365 2.3183572967 2.1243706857 1.9616239082 
1.829722181 1.7240926197 1.6393591329 3.23549507 3.3177459509 3.3894651688 3.4519439696 3.5064564817 3.5541660013 
3.5960900196 3.6330970997 3.6659187711 3.0476902371 2.9654393563 2.8937201384 2.8312413375 2.7767288255 2.7290193058 
2.6870952876 2.6500882075 2.617266536 4.7123889804 4.7123889804 4.7123889804 4.7123889804 4.7123889804 4.7123889804 
4.7123889804 4.7123889804 4.7123889804 4.6087898617 4.4991390697 4.3857031936 4.2712800401 4.1588146215 4.0509635631 
3.94975894 3.8564636551 3.7716124825 4.8159880991 4.9256388911 5.0390747672 5.1534979207 5.2659633393 5.3738143976 
5.4750190208 5.5683143056 5.6531654782 4.6087898617 4.4991390697 4.3857031936 4.2712800401 4.1588146215 4.0509635631 
3.94975894 3.8564636551 3.7716124825 4.8159880991 4.9256388911 5.0390747672 5.1534979207 5.2659633393 5.3738143976 
5.4750190208 5.5683143056 5.6531654782 1.5707963268 1.5707963268 1.5707963268 1.5707963268 1.5707963268 1.5707963268 
1.5707963268 1.5707963268 1.5707963268 1.6743954455 1.7840462375 1.8974821136 2.0119052671 2.1243706857 2.232221744 
2.3334263672 2.426721652 2.5115728246 1.4671972081 1.3575464161 1.24411054 1.1296873865 1.0172219679 0.90937090954 
0.80816628637 0.71487100155 0.63001982895 1.6743954455 1.7840462375 1.8974821136 2.0119052671 2.1243706857 2.232221744 
2.3334263672 2.426721652 2.5115728246 1.4671972081 1.3575464161 1.24411054 1.1296873865 1.0172219679 0.90937090954 
0.80816628637 0.71487100155 0.63001982895 3.6007720849 3.4966939854 3.3839471039 3.2645756454 3.1415926536 3.0186096618 
2.8992382033 2.7864913217 2.6824132222 5.8240058758 5.9280839753 6.0408308569 6.1602023154 6.2831853072 0.12298299178 
0.2423544503 0.35510133185 0.45917943135 6.0560271438 5.7885595667 5.9702140275 5.5125918794 5.6029703303 5.7885595667 
5.2659633393 5.2659633393 5.2659633393 5.2659633393 5.0674903122 5.0120975802 4.9155579264 4.7123889804 4.1588146215 
4.9155579264 4.8353719722 4.7123889804 4.5092200343 4.1588146215 3.6362183941 4.8004512023 4.7123889804 4.5894059886 
4.4126803806 4.1588146215 3.8218076305 3.4545639333 4.7123889804 4.6243267584 4.5092200343 4.3572876485 4.1588146215 
3.9121860814 3.6362183941 3.368750817 6.0174235957 5.9434319871 5.8263323547 5.8809213739 5.7674481418 5.6279784266 
5.8278025282 5.718968232 5.5891129425 5.4372443565 5.7823484065 5.678536687 5.5575666702 5.4192596322 5.2659633393 
5.743164462 5.6444075337 5.5314983644 5.4046708639 5.2659633393 5.1195510325 5.7091357773 5.6152775188 5.5096229709 
5.3926039573 5.2659633393 5.1329233157 4.9978930058 5.6793730533 5.5901633916 5.4910209005 5.3824597928 5.2659633393 
5.1440684722 5.0201624502 4.8979782167 5.5683143056 5.4750190208 5.4750190208 5.3738143976 5.3738143976 5.3738143976 
5.2659633393 5.2659633393 5.2659633393 5.2659633393 5.1534979207 5.1534979207 5.1534979207 5.1534979207 5.1534979207 
5.0390747672 5.0390747672 5.0390747672 5.0390747672 5.0390747672 5.0390747672 4.9256388911 4.9256388911 4.9256388911 
4.9256388911 4.9256388911 4.9256388911 4.9256388911 4.8159880991 4.8159880991 4.8159880991 4.8159880991 4.8159880991 
4.8159880991 4.8159880991 4.8159880991 4.6087898617 4.6087898617 4.4991390697 4.6087898617 4.4991390697 4.3857031936 
4.6087898617 4.4991390697 4.3857031936 4.2712800401 4.6087898617 4.4991390697 4.3857031936 4.2712800401 4.1588146215 
4.6087898617 4.4991390697 4.3857031936 4.2712800401 4.1588146215 4.0509635631 4.6087898617 4.4991390697 4.3857031936 
4.2712800401 4.1588146215 4.0509635631 3.94975894 4.6087898617 4.4991390697 4.3857031936 4.2712800401 4.1588146215 
4.0509635631 3.94975894 3.8564636551 4.526799744 4.4046155105 4.426884955 4.2807094886 4.2918546451 4.3052269283 
4.1588146215 4.1588146215 4.1588146215 4.1588146215 4.042318168 4.0321740035 4.0201070968 4.0055183285 3.9875336042 
3.9337570603 3.9151549899 3.8932795963 3.8672112905 3.8356650183 3.7967995342 3.8346145692 3.809500442 3.7803704271 
3.7462412737 3.7058097288 3.657329819 3.5984456061 3.7454049075 3.7156421835 3.6816134988 3.6424295543 3.5969754326 
3.5438565869 3.4813459737 3.4073543651 3.5642842451 3.4524645613 3.5233842518 3.3320300872 3.403123212 3.4773852225 
3.20576226 3.2746326772 3.348015857 3.4255060145 3.0774230472 3.1415926536 3.2112816139 3.2864685043 3.3668817272 
2.95115522 3.00855263 3.0719036933 3.1415926536 3.2178377658 3.3005964304 2.8307207459 2.8800620952 2.9351694502 
2.9967168029 3.0653475414 3.1415926536 3.225752376 2.718901062 2.7598010554 2.8058000847 2.8576792927 2.91630358 
2.9825888767 3.0574329311 3.1415926536 3.5642842451 3.5233842518 3.4524645613 3.4773852225 3.403123212 3.3320300872 
3.4255060145 3.348015857 3.2746326772 3.20576226 3.3668817272 3.2864685043 3.2112816139 3.1415926536 3.0774230472 
3.3005964304 3.2178377658 3.1415926536 3.0719036933 3.00855263 2.95115522 3.225752376 3.1415926536 3.0653475414 
2.9967168029 2.9351694502 2.8800620952 2.8307207459 3.1415926536 3.0574329311 2.9825888767 2.91630358 2.8576792927 
2.8058000847 2.7598010554 2.718901062 4.526799744 4.426884955 4.4046155105 4.3052269283 4.2918546451 4.2807094886 
4.1588146215 4.1588146215 4.1588146215 4.1588146215 3.9875336042 4.0055183285 4.0201070968 4.0321740035 4.042318168 
3.7967995342 3.8356650183 3.8672112905 3.8932795963 3.9151549899 3.9337570603 3.5984456061 3.657329819 3.7058097288 
3.7462412737 3.7803704271 3.809500442 3.8346145692 3.4073543651 3.4813459737 3.5438565869 3.5969754326 3.6424295543 
3.6816134988 3.7156421835 3.7454049075 4.7123889804 4.8004512023 4.6243267584 4.9155579264 4.7123889804 4.5092200343 
5.0674903122 4.8353719722 4.5894059886 4.3572876485 5.2659633393 5.0120975802 4.7123889804 4.4126803806 4.1588146215 
5.5125918794 5.2659633393 4.9155579264 4.5092200343 4.1588146215 3.9121860814 5.7885595667 5.6029703303 5.2659633393 
4.7123889804 4.1588146215 3.8218076305 3.6362183941 6.0560271438 5.9702140275 5.7885595667 5.2659633393 4.1588146215 
3.6362183941 3.4545639333 3.368750817 0.22715816343 0.49462574053 0.3129712797 0.77059342779 0.68021497688 0.49462574053 
1.0172219679 1.0172219679 1.0172219679 1.0172219679 1.2156949949 1.271087727 1.3676273807 1.5707963268 2.1243706857 
1.3676273807 1.447813335 1.5707963268 1.7739652728 2.1243706857 2.6469669131 1.4827341049 1.5707963268 1.6937793186 
1.8705049266 2.1243706857 2.4613776767 2.8286213739 1.5707963268 1.6588585487 1.7739652728 1.9258976586 2.1243706857 
2.3709992258 2.6469669131 2.9144344902 1.7563855631 1.8785697967 1.8563003522 2.0024758186 1.9913306621 1.9779583789 
2.1243706857 2.1243706857 2.1243706857 2.1243706857 2.2408671392 2.2510113037 2.2630782103 2.2776669786 2.295651703 
2.3494282469 2.3680303173 2.3899057108 2.4159740166 2.4475202889 2.486385773 2.448570738 2.4736848652 2.5028148801 
2.5369440334 2.5773755784 2.6258554882 2.6847397011 2.5377803997 2.5675431237 2.6015718084 2.6407557529 2.6862098746 
2.7393287203 2.8018393335 2.8758309421 1.6743954455 1.6743954455 1.7840462375 1.6743954455 1.7840462375 1.8974821136 
1.6743954455 1.7840462375 1.8974821136 2.0119052671 1.6743954455 1.7840462375 1.8974821136 2.0119052671 2.1243706857 
1.6743954455 1.7840462375 1.8974821136 2.0119052671 2.1243706857 2.232221744 1.6743954455 1.7840462375 1.8974821136 
2.0119052671 2.1243706857 2.232221744 2.3334263672 1.6743954455 1.7840462375 1.8974821136 2.0119052671 2.1243706857 
2.232221744 2.3334263672 2.426721652 1.4671972081 1.3575464161 1.4671972081 1.24411054 1.3575464161 1.4671972081 
1.1296873865 1.24411054 1.3575464161 1.4671972081 1.0172219679 1.1296873865 1.24411054 1.3575464161 1.4671972081 
0.90937090954 1.0172219679 1.1296873865 1.24411054 1.3575464161 1.4671972081 0.80816628637 0.90937090954 1.0172219679 
1.1296873865 1.24411054 1.3575464161 1.4671972081 0.71487100155 0.80816628637 0.90937090954 1.0172219679 1.1296873865 
1.24411054 1.3575464161 1.4671972081 0.60381225391 0.57404952988 0.69302191562 0.54002084522 0.66790778838 0.79216440667 
0.50083690068 0.63877777351 0.77356233629 0.90072551443 0.45538277901 0.60464862014 0.75168694275 0.89058134991 1.0172219679 
0.40226393329 0.56421707518 0.72561863695 0.87851444325 1.0172219679 1.139116835 0.33975332011 0.51573716537 0.69407236469 
0.86392567495 1.0172219679 1.1502619915 1.2630228569 0.26576171152 0.45685295248 0.6552068806 0.84594095064 1.0172219679 
1.1636342747 1.2852923014 1.3852070904 0.22715816343 0.3129712797 0.49462574053 0.49462574053 0.68021497688 0.77059342779 
1.0172219679 1.0172219679 1.0172219679 1.0172219679 2.1243706857 1.5707963268 1.3676273807 1.271087727 1.2156949949 
2.6469669131 2.1243706857 1.7739652728 1.5707963268 1.447813335 1.3676273807 2.8286213739 2.4613776767 2.1243706857 
1.8705049266 1.6937793186 1.5707963268 1.4827341049 2.9144344902 2.6469669131 2.3709992258 2.1243706857 1.9258976586 
1.7739652728 1.6588585487 1.5707963268 1.7563855631 1.8563003522 1.8785697967 1.9779583789 1.9913306621 2.0024758186 
2.1243706857 2.1243706857 2.1243706857 2.1243706857 2.295651703 2.2776669786 2.2630782103 2.2510113037 2.2408671392 
2.486385773 2.4475202889 2.4159740166 2.3899057108 2.3680303173 2.3494282469 2.6847397011 2.6258554882 2.5773755784 
2.5369440334 2.5028148801 2.4736848652 2.448570738 2.8758309421 2.8018393335 2.7393287203 2.6862098746 2.6407557529 
2.6015718084 2.5675431237 2.5377803997 5.8604937156 5.901393709 5.9723133995 5.9473927383 6.0216547488 6.0927478736 
5.9992719463 6.0767621038 6.1501452836 6.2190157008 6.0578962336 6.1383094565 6.2134963469 0 0.064169606361 
6.1241815303 6.206940195 6.2831853072 0.069688960264 0.13304002361 0.19043743361 6.1990255847 0 0.07624511221 
0.14487585072 0.20642320337 0.26153055843 0.3108719077 0 0.084159722458 0.15900377685 0.22528907359 0.28391336087 
0.3357925689 0.38179159818 0.42269159155 5.8604937156 5.9723133995 5.901393709 6.0927478736 6.0216547488 5.9473927383 
6.2190157008 6.1501452836 6.0767621038 5.9992719463 0.064169606361 0 6.2134963469 6.1383094565 6.0578962336 
0.19043743361 0.13304002361 0.069688960264 6.2831853072 6.206940195 6.1241815303 0.3108719077 0.26153055843 0.20642320337 
0.14487585072 0.07624511221 6.2831853072 6.1990255847 0.42269159155 0.38179159818 0.3357925689 0.28391336087 0.22528907359 
0.15900377685 0.084159722458 0 5.6793730533 5.7091357773 5.5901633916 5.743164462 5.6152775188 5.4910209005 
5.7823484065 5.6444075337 5.5096229709 5.3824597928 5.8278025282 5.678536687 5.5314983644 5.3926039573 5.2659633393 
5.8809213739 5.718968232 5.5575666702 5.4046708639 5.2659633393 5.1440684722 5.9434319871 5.7674481418 5.5891129425 
5.4192596322 5.2659633393 5.1329233157 5.0201624502 6.0174235957 5.8263323547 5.6279784266 5.4372443565 5.2659633393 
5.1195510325 4.9978930058 4.8979782167 1.3852070904 1.2852923014 1.2630228569 1.1636342747 1.1502619915 1.139116835 
1.0172219679 1.0172219679 1.0172219679 1.0172219679 0.84594095064 0.86392567495 0.87851444325 0.89058134991 0.90072551443 
0.6552068806 0.69407236469 0.72561863695 0.75168694275 0.77356233629 0.79216440667 0.45685295248 0.51573716537 0.56421707518 
0.60464862014 0.63877777351 0.66790778838 0.69302191562 0.26576171152 0.33975332011 0.40226393329 0.45538277901 0.50083690068 
0.54002084522 0.57404952988 0.60381225391 
