# vtk DataFile Version 4.1
vtk output
ASCII
DATASET POLYDATA
POINTS 1002 float
45.2818 97.0023 96.002 48.1069 98.3549 103.778 43.9618 102.599 93.6018 
45.2446 105.282 101.966 48.9598 102.326 98.9664 49.7635 104.738 96.1326 
40.0685 96.028 101.99 38.9303 101.34 100.362 53.0505 103.418 104.266 
47.5156 99.6872 89.3795 44.1759 100.907 105.654 42.8606 96.8523 94.5683 
45.1275 97.5749 96.7574 45.0231 98.079 97.6768 44.9458 98.5389 98.6646 
44.8947 98.9918 99.6793 45.0548 99.2411 100.788 45.5368 99.1743 101.781 
46.1756 98.9945 102.451 46.8536 98.7833 102.94 47.517 98.5459 103.371 
45.4519 97.5511 96.0921 45.6569 98.1193 96.2501 45.8991 98.7522 96.4422 
46.2439 99.3751 96.6796 46.6412 99.9695 96.9729 47.0649 100.563 97.3722 
47.5269 101.116 97.8634 47.997 101.579 98.3207 48.4717 101.99 98.6719 
45.0024 96.8764 96.3973 44.7096 96.7637 96.9179 44.3428 96.6617 97.5518 
43.8181 96.5907 98.2115 43.1989 96.4583 98.9473 42.6348 96.0424 99.8376 
42.116 95.5714 100.68 41.4837 95.4828 101.288 40.7355 95.7373 101.687 
45.5585 96.7352 95.355 45.7858 96.5411 94.6729 45.9797 96.493 93.9894 
46.2442 96.6388 93.3105 46.57 96.9947 92.5571 46.9062 97.4623 91.7584 
47.2353 97.9197 91.002 47.4533 98.4118 90.3544 47.5282 99.0075 89.8207 
45.2919 96.2653 95.5497 45.3437 95.367 95.1001 45.3817 94.3603 94.6946 
45.1225 93.5373 94.4076 44.5844 93.3246 94.1603 44.0604 93.817 93.9091 
43.6926 94.7033 93.8662 43.3914 95.5709 94.0827 43.104 96.2918 94.3542 
48.2948 98.8567 103.612 48.4713 99.4091 103.402 48.6617 99.9397 103.052 
48.8842 100.406 102.607 49.0268 100.868 102.099 49.0424 101.318 101.528 
49.0234 101.697 100.938 49.0209 101.974 100.321 49.0002 102.181 99.6478 
47.5378 97.9792 103.704 46.9194 97.5718 103.659 46.178 97.2686 103.622 
45.2374 97.1158 103.562 44.1702 96.9337 103.45 43.1517 96.6851 103.254 
42.2494 96.4971 102.957 41.3931 96.3199 102.62 40.6564 96.1424 102.294 
48.7913 98.5048 104.058 49.5156 98.7241 104.299 50.2298 99.1306 104.576 
51.0301 99.5113 104.797 51.7985 99.866 104.954 52.3395 100.422 105.092 
52.7081 101.213 105.096 52.9361 102.037 104.875 53.0308 102.792 104.573 
48.2463 98.0864 104.208 48.1772 98.099 104.81 47.8299 98.3635 105.429 
47.3148 98.5793 105.947 46.714 98.8075 106.379 46.0218 99.2694 106.598 
45.4242 99.8421 106.482 45.0764 100.212 106.144 44.694 100.504 105.824 
43.9722 102.957 94.3182 43.9945 103.344 95.1034 44.0625 103.738 95.9695 
44.1344 104.118 96.9144 44.2077 104.447 97.8963 44.3613 104.736 98.8332 
44.5328 104.996 99.7015 44.6933 105.191 100.534 44.9343 105.28 101.314 
44.3145 102.864 93.4043 44.7396 103.123 93.2862 45.2064 103.416 93.2618 
45.6851 103.765 93.3034 46.2463 104.083 93.472 46.9318 104.268 93.8658 
47.6597 104.399 94.4428 48.3914 104.559 95.0321 49.0949 104.677 95.5978 
43.6248 102.535 94.2969 43.2318 102.467 95.0541 42.7747 102.415 95.8602 
42.2717 102.322 96.7069 41.7242 102.168 97.5405 41.0642 102.048 98.1909 
40.354 101.95 98.7106 39.7304 101.787 99.2579 39.2732 101.566 99.8289 
44.1407 102.418 92.7368 44.3384 102.225 91.7896 44.6163 102.017 90.8311 
44.8834 101.801 89.8603 45.0824 101.604 88.94 45.4623 101.36 88.4113 
46.126 101.03 88.4709 46.7168 100.65 88.7973 47.1499 100.194 89.0815 
43.7323 102.213 93.3369 43.4861 101.783 93.1331 43.2568 101.248 93.0244 
43.0533 100.608 93.0089 42.9024 99.8862 93.1133 42.8355 99.1742 93.3832 
42.8656 98.4983 93.7539 42.9097 97.89 94.0833 42.9035 97.3386 94.3473 
45.7706 105.461 101.551 46.2668 105.65 101.021 46.8225 105.714 100.37 
47.4825 105.656 99.6203 48.0885 105.673 98.8481 48.6152 105.682 98.127 
49.0796 105.492 97.5463 49.4103 105.198 97.0872 49.6023 104.957 96.6149 
44.4442 105.148 101.948 43.6373 104.966 101.905 42.8671 104.652 101.854 
42.1621 104.193 101.779 41.4527 103.711 101.625 40.7462 103.243 101.417 
40.1548 102.766 101.211 39.7187 102.232 100.968 39.3098 101.742 100.667 
45.9608 105.3 102.287 46.7905 105.252 102.56 47.7244 105.169 102.852 
48.745 105.071 103.159 49.7644 104.946 103.458 50.7517 104.794 103.727 
51.6448 104.599 103.966 52.3165 104.297 104.151 52.743 103.872 104.235 
45.0908 105.109 102.528 44.9464 104.804 103.051 44.83 104.417 103.545 
44.6985 104.031 104.036 44.5842 103.515 104.441 44.5133 102.905 104.761 
44.4138 102.418 105.111 44.2858 102 105.437 44.1948 101.499 105.615 
49.2873 102.532 98.7077 49.6892 102.696 98.3933 50.1334 102.867 97.9885 
50.5928 103.003 97.5211 51.0296 103.113 97.0089 51.2394 103.475 96.5302 
51.1131 104.024 96.2539 50.7579 104.402 96.1757 50.281 104.607 96.1439 
49.5592 102.49 99.61 50.3519 102.507 100.187 51.3324 102.383 100.66 
52.378 102.232 101.038 53.2311 102.121 101.446 53.7435 102.156 102.093 
53.9349 102.454 102.965 53.8418 102.887 103.649 53.4879 103.215 104.009 
48.6534 102.193 98.05 48.4493 101.921 97.0191 48.3359 101.522 95.9394 
48.2541 101.063 94.7819 48.1728 100.655 93.5486 48.0937 100.319 92.3633 
48.1052 99.9801 91.2676 48.1967 99.6805 90.2885 48.0379 99.5844 89.628 
50.3665 104.919 96.9324 51.0286 105.102 97.7098 51.6961 105.263 98.5355 
52.3821 105.394 99.4226 53.0425 105.459 100.352 53.4715 105.342 101.32 
53.5475 104.969 102.268 53.4356 104.428 103.12 53.2834 103.896 103.772 
49.4809 104.433 95.3046 49.1557 104.052 94.4159 48.8456 103.617 93.4062 
48.5757 103.105 92.3052 48.3376 102.61 91.2187 48.2206 102.173 90.1447 
48.2529 101.627 89.2211 48.1877 100.959 88.8564 47.9192 100.293 89.0107 
39.3968 96.158 101.957 38.7977 96.3936 101.855 38.2544 96.7165 101.72 
37.9018 97.245 101.623 37.8279 98.0913 101.474 37.8402 99.0749 101.186 
37.8681 99.9404 100.906 38.0883 100.554 100.701 38.4915 100.979 100.517 
39.8767 96.3417 102.492 39.8057 96.707 103.144 39.8873 97.1232 103.854 
40.2486 97.6444 104.39 40.8101 98.2724 104.778 41.3915 98.846 105.195 
42.0547 99.353 105.499 42.8228 99.8853 105.576 43.5317 100.438 105.62 
39.9303 95.7921 101.483 39.8536 95.5526 100.828 39.8731 95.4088 100.022 
40.1001 95.5478 99.2028 40.5426 95.9308 98.4266 41.1293 96.2662 97.582 
41.7069 96.3976 96.6915 42.1796 96.4856 95.869 42.5387 96.6309 95.1536 
38.8647 101.363 101.099 38.8534 101.425 101.964 38.9241 101.522 102.921 
39.1388 101.595 103.805 39.6012 101.529 104.423 40.3992 101.351 104.772 
41.3686 101.256 105.076 42.2754 101.244 105.393 43.1961 101.127 105.574 
38.811 101.108 99.7244 38.8484 100.748 99.1057 39.1343 100.19 98.605 
39.5921 99.5214 98.1202 40.0809 98.915 97.5446 40.564 98.4417 96.9395 
41.195 98.0177 96.401 41.8863 97.5836 95.7971 42.4321 97.1994 95.1456 
52.5321 103.232 104.701 51.8844 103.04 105.125 51.0675 102.849 105.501 
50.0958 102.63 105.855 49.0981 102.348 106.112 48.107 101.983 106.106 
47.1052 101.609 105.927 46.1192 101.277 105.78 45.1485 101.06 105.707 
46.8763 99.4016 89.6096 46.2273 99.0524 89.9056 45.6024 98.569 90.1678 
44.9779 97.9067 90.474 44.4467 97.3068 90.9035 44.0728 96.9473 91.5742 
43.8655 96.8132 92.4157 43.669 96.7915 93.2396 43.3139 96.8034 93.9353 
45.3421 98.0979 96.9428 45.6247 98.6594 97.1428 45.2964 98.5907 97.8825 
45.9554 99.2697 97.3901 45.617 99.1794 98.1007 45.2461 99.0887 98.8817 
46.3683 99.8486 97.709 46.0217 99.7548 98.4547 45.6248 99.6638 99.2224 
45.2978 99.4883 100.051 46.85 100.41 98.1138 46.5904 100.217 98.9075 
46.2129 100.106 99.7047 45.8785 99.9208 100.51 45.6743 99.5796 101.232 
47.3682 100.975 98.626 47.2225 100.704 99.3797 46.9761 100.453 100.149 
46.6718 100.244 100.909 46.4614 99.8981 101.575 46.3088 99.4534 102.078 
47.9027 101.441 99.1219 47.8192 101.209 99.8387 47.7081 100.873 100.51 
47.5127 100.569 101.193 47.3226 100.214 101.805 47.1658 99.761 102.296 
46.9937 99.2917 102.688 48.4461 101.837 99.4438 48.4034 101.632 100.164 
48.3658 101.328 100.778 48.305 100.951 101.4 48.1872 100.54 101.987 
48.0241 100.086 102.482 47.8436 99.6051 102.909 47.6663 99.0944 103.212 
45.7303 97.3599 95.4033 45.9538 97.2663 94.6708 45.8833 98.0544 95.4903 
46.1844 97.3211 93.9698 46.1379 98.0583 94.7321 46.1385 98.7771 95.6808 
46.4725 97.5579 93.247 46.4514 98.1681 93.9934 46.4466 98.8417 94.9163 
46.5188 99.4428 95.9491 46.7988 97.9183 92.451 46.7646 98.4028 93.2271 
46.7698 98.975 94.1434 46.8101 99.5557 95.2171 46.9156 100.079 96.2757 
47.2024 98.2576 91.6443 47.1008 98.7056 92.4606 47.085 99.2009 93.3631 
47.0902 99.7417 94.4397 47.1811 100.243 95.5744 47.3339 100.714 96.6907 
47.6276 98.5779 90.8857 47.5151 98.9919 91.7194 47.4395 99.464 92.6469 
47.4451 99.9189 93.6798 47.4904 100.393 94.856 47.6113 100.877 96.0173 
47.7714 101.297 97.1696 47.9157 99.013 90.2119 47.9166 99.2908 90.9877 
47.7971 99.7162 91.9629 47.8053 100.102 93.0063 47.865 100.489 94.1817 
47.9338 100.972 95.3921 48.0323 101.449 96.5246 48.1979 101.793 97.6345 
48.2811 100.239 89.4805 48.4227 100.962 89.6252 48.3498 100.333 90.3953 
48.5049 101.681 90.2478 48.554 101.029 90.7729 48.3536 100.574 91.5783 
48.6644 102.247 91.1996 48.8353 101.671 91.4754 48.7076 101.169 92.1183 
48.4325 100.882 92.872 48.9135 102.778 92.253 49.1461 102.236 92.4003 
49.1235 101.684 92.8832 48.8434 101.436 93.557 48.5368 101.256 94.2144 
49.1956 103.36 93.3863 49.4494 102.902 93.4882 49.5351 102.277 93.8349 
49.354 101.926 94.3811 49.0022 101.825 94.9545 48.6599 101.677 95.4864 
49.5455 103.852 94.45 49.8418 103.522 94.5552 50.0112 102.971 94.8058 
49.9619 102.492 95.2375 49.6321 102.315 95.7254 49.2002 102.203 96.205 
48.7992 102.062 96.6478 49.9354 104.253 95.3511 50.3185 103.998 95.4306 
50.5736 103.538 95.5951 50.6142 103.021 95.9512 50.3331 102.769 96.4281 
49.8673 102.653 96.9076 49.4018 102.506 97.3596 48.9905 102.36 97.741 
49.986 102.685 99.3565 50.4869 102.862 99.0093 50.9091 102.672 99.8975 
50.9551 103.077 98.5969 51.502 102.883 99.5403 51.9954 102.563 100.334 
51.387 103.229 98.1033 51.9702 103.163 99.1206 52.5781 102.871 99.9418 
52.9857 102.511 100.691 51.7273 103.48 97.5508 52.2771 103.475 98.6035 
52.9368 103.331 99.4643 53.4106 103.036 100.242 53.6335 102.643 101.133 
51.771 104.025 97.1141 52.3595 103.992 98.1209 53.0169 103.9 99.0241 
53.6013 103.752 99.8189 53.8522 103.479 100.765 53.8887 103.012 101.912 
[...]
POINT_DATA 1002
SCALARS _paraPhi double
LOOKUP_TABLE default
6.2831853072 3.1415926536 6.2831853072 3.1415926536 4.7123889804 4.7123889804 1.5707963268 1.5707963268 3.6951670125 
5.7296109483 2.5880182947 0.5535743589 6.2831853072 6.2831853072 6.2831853072 6.2831853072 3.1415926536 3.1415926536 
3.1415926536 3.1415926536 3.1415926536 6.1053039672 5.898798347 5.6768734901 5.4599499503 5.2659633393 5.1032165617 
4.9713148346 4.8656852733 4.7809517865 0.17788134 0.38438696014 0.60631181711 0.82323535693 1.0172219679 1.1799687454 
1.3118704726 1.4175000338 1.5022335207 6.1892828907 6.1070320098 6.035312792 5.9728339911 5.9183214791 5.8706119594 
5.8286879411 5.7916808611 5.7588591896 0.093902416448 0.17615329733 0.2478725152 0.31035131605 0.36486382811 0.41257334776 
0.45449736604 0.4915044461 0.52432611754 3.3194739936 3.5259796137 3.7479044707 3.9648280105 4.1588146215 4.321561399 
4.4534631262 4.5590926874 4.6438261743 2.9637113136 2.7572056934 2.5352808365 2.3183572967 2.1243706857 1.9616239082 
1.829722181 1.7240926197 1.6393591329 3.23549507 3.3177459509 3.3894651688 3.4519439696 3.5064564817 3.5541660013 
3.5960900196 3.6330970997 3.6659187711 3.0476902371 2.9654393563 2.8937201384 2.8312413375 2.7767288255 2.7290193058 
2.6870952876 2.6500882075 2.617266536 6.2831853072 6.2831853072 6.2831853072 6.2831853072 3.1415926536 3.1415926536 
3.1415926536 3.1415926536 3.1415926536 6.1053039672 5.898798347 5.6768734901 5.4599499503 5.2659633393 5.1032165617 
4.9713148346 4.8656852733 4.7809517865 0.17788134 0.38438696014 0.60631181711 0.82323535693 1.0172219679 1.1799687454 
1.3118704726 1.4175000338 1.5022335207 6.1892828907 6.1070320098 6.035312792 5.9728339911 5.9183214791 5.8706119594 
5.8286879411 5.7916808611 5.7588591896 0.093902416448 0.17615329733 0.2478725152 0.31035131605 0.36486382811 0.41257334776 
0.45449736604 0.4915044461 0.52432611754 3.3194739936 3.5259796137 3.7479044707 3.9648280105 4.1588146215 4.321561399 
4.4534631262 4.5590926874 4.6438261743 2.9637113136 2.7572056934 2.5352808365 2.3183572967 2.1243706857 1.9616239082 
1.829722181 1.7240926197 1.6393591329 3.23549507 3.3177459509 3.3894651688 3.4519439696 3.5064564817 3.5541660013 
3.5960900196 3.6330970997 3.6659187711 3.0476902371 2.9654393563 2.8937201384 2.8312413375 2.7767288255 2.7290193058 
2.6870952876 2.6500882075 2.617266536 4.7123889804 4.7123889804 4.7123889804 4.7123889804 4.7123889804 4.7123889804 
4.7123889804 4.7123889804 4.7123889804 4.6087898617 4.4991390697 4.3857031936 4.2712800401 4.1588146215 4.0509635631 
3.94975894 3.8564636551 3.7716124825 4.8159880991 4.9256388911 5.0390747672 5.1534979207 5.2659633393 5.3738143976 
5.4750190208 5.5683143056 5.6531654782 4.6087898617 4.4991390697 4.3857031936 4.2712800401 4.1588146215 4.0509635631 
3.94975894 3.8564636551 3.7716124825 4.8159880991 4.9256388911 5.0390747672 5.1534979207 5.2659633393 5.3738143976 
5.4750190208 5.5683143056 5.6531654782 1.5707963268 1.5707963268 1.5707963268 1.5707963268 1.5707963268 1.5707963268 
1.5707963268 1.5707963268 1.5707963268 1.6743954455 1.7840462375 1.8974821136 2.0119052671 2.1243706857 2.232221744 
2.3334263672 2.426721652 2.5115728246 1.4671972081 1.3575464161 1.24411054 1.1296873865 1.0172219679 0.90937090954 
0.80816628637 0.71487100155 0.63001982895 1.6743954455 1.7840462375 1.8974821136 2.0119052671 2.1243706857 2.232221744 
2.3334263672 2.426721652 2.5115728246 1.4671972081 1.3575464161 1.24411054 1.1296873865 1.0172219679 0.90937090954 
0.80816628637 0.71487100155 0.63001982895 3.6007720849 3.4966939854 3.3839471039 3.2645756454 3.1415926536 3.0186096618 
2.8992382033 2.7864913217 2.6824132222 5.8240058758 5.9280839753 6.0408308569 6.1602023154 6.2831853072 0.12298299178 
0.2423544503 0.35510133185 0.45917943135 6.0560271438 5.7885595667 5.9702140275 5.5125918794 5.6029703303 5.7885595667 
5.2659633393 5.2659633393 5.2659633393 5.2659633393 5.0674903122 5.0120975802 4.9155579264 4.7123889804 4.1588146215 
4.9155579264 4.8353719722 4.7123889804 4.5092200343 4.1588146215 3.6362183941 4.8004512023 4.7123889804 4.5894059886 
4.4126803806 4.1588146215 3.8218076305 3.4545639333 4.7123889804 4.6243267584 4.5092200343 4.3572876485 4.1588146215 
3.9121860814 3.6362183941 3.368750817 6.0174235957 5.9434319871 5.8263323547 5.8809213739 5.7674481418 5.6279784266 
5.8278025282 5.718968232 5.5891129425 5.4372443565 5.7823484065 5.678536687 5.5575666702 5.4192596322 5.2659633393 
5.743164462 5.6444075337 5.5314983644 5.4046708639 5.2659633393 5.1195510325 5.7091357773 5.6152775188 5.5096229709 
5.3926039573 5.2659633393 5.1329233157 4.9978930058 5.6793730533 5.5901633916 5.4910209005 5.3824597928 5.2659633393 
5.1440684722 5.0201624502 4.8979782167 5.5683143056 5.4750190208 5.4750190208 5.3738143976 5.3738143976 5.3738143976 
5.2659633393 5.2659633393 5.2659633393 5.2659633393 5.1534979207 5.1534979207 5.1534979207 5.1534979207 5.1534979207 
5.0390747672 5.0390747672 5.0390747672 5.0390747672 5.0390747672 5.0390747672 4.9256388911 4.9256388911 4.9256388911 
4.9256388911 4.9256388911 4.9256388911 4.9256388911 4.8159880991 4.8159880991 4.8159880991 4.8159880991 4.8159880991 
4.8159880991 4.8159880991 4.8159880991 4.6087898617 4.6087898617 4.4991390697 4.6087898617 4.4991390697 4.3857031936 
4.6087898617 4.4991390697 4.3857031936 4.2712800401 4.6087898617 4.4991390697 4.3857031936 4.2712800401 4.1588146215 
4.6087898617 4.4991390697 4.3857031936 4.2712800401 4.1588146215 4.0509635631 4.6087898617 4.4991390697 4.3857031936 
4.2712800401 4.1588146215 4.0509635631 3.94975894 4.6087898617 4.4991390697 4.3857031936 4.2712800401 4.1588146215 
4.0509635631 3.94975894 3.8564636551 4.526799744 4.4046155105 4.426884955 4.2807094886 4.2918546451 4.3052269283 
4.1588146215 4.1588146215 4.1588146215 4.1588146215 4.042318168 4.0321740035 4.0201070968 4.0055183285 3.9875336042 
3.9337570603 3.9151549899 3.8932795963 3.8672112905 3.8356650183 3.7967995342 3.8346145692 3.809500442 3.7803704271 
3.7462412737 3.7058097288 3.657329819 3.5984456061 3.7454049075 3.7156421835 3.6816134988 3.6424295543 3.5969754326 
3.5438565869 3.4813459737 3.4073543651 3.5642842451 3.4524645613 3.5233842518 3.3320300872 3.403123212 3.4773852225 
3.20576226 3.2746326772 3.348015857 3.4255060145 3.0774230472 3.1415926536 3.2112816139 3.2864685043 3.3668817272 
2.95115522 3.00855263 3.0719036933 3.1415926536 3.2178377658 3.3005964304 2.8307207459 2.8800620952 2.9351694502 
2.9967168029 3.0653475414 3.1415926536 3.225752376 2.718901062 2.7598010554 2.8058000847 2.8576792927 2.91630358 
2.9825888767 3.0574329311 3.1415926536 3.5642842451 3.5233842518 3.4524645613 3.4773852225 3.403123212 3.3320300872 
3.4255060145 3.348015857 3.2746326772 3.20576226 3.3668817272 3.2864685043 3.2112816139 3.1415926536 3.0774230472 
3.3005964304 3.2178377658 3.1415926536 3.0719036933 3.00855263 2.95115522 3.225752376 3.1415926536 3.0653475414 
2.9967168029 2.9351694502 2.8800620952 2.8307207459 3.1415926536 3.0574329311 2.9825888767 2.91630358 2.8576792927 
2.8058000847 2.7598010554 2.718901062 4.526799744 4.426884955 4.4046155105 4.3052269283 4.2918546451 4.2807094886 
4.1588146215 4.1588146215 4.1588146215 4.1588146215 3.9875336042 4.0055183285 4.0201070968 4.0321740035 4.042318168 
3.7967995342 3.8356650183 3.8672112905 3.8932795963 3.9151549899 3.9337570603 3.5984456061 3.657329819 3.7058097288 
3.7462412737 3.7803704271 3.809500442 3.8346145692 3.4073543651 3.4813459737 3.5438565869 3.5969754326 3.6424295543 
3.6816134988 3.7156421835 3.7454049075 4.7123889804 4.8004512023 4.6243267584 4.9155579264 4.7123889804 4.5092200343 
5.0674903122 4.8353719722 4.5894059886 4.3572876485 5.2659633393 5.0120975802 4.7123889804 4.4126803806 4.1588146215 
5.5125918794 5.2659633393 4.9155579264 4.5092200343 4.1588146215 3.9121860814 5.7885595667 5.6029703303 5.2659633393 
4.7123889804 4.1588146215 3.8218076305 3.6362183941 6.0560271438 5.9702140275 5.7885595667 5.2659633393 4.1588146215 
3.6362183941 3.4545639333 3.368750817 0.22715816343 0.49462574053 0.3129712797 0.77059342779 0.68021497688 0.49462574053 
1.0172219679 1.0172219679 1.0172219679 1.0172219679 1.2156949949 1.271087727 1.3676273807 1.5707963268 2.1243706857 
1.3676273807 1.447813335 1.5707963268 1.7739652728 2.1243706857 2.6469669131 1.4827341049 1.5707963268 1.6937793186 
1.8705049266 2.1243706857 2.4613776767 2.8286213739 1.5707963268 1.6588585487 1.7739652728 1.9258976586 2.1243706857 
2.3709992258 2.6469669131 2.9144344902 1.7563855631 1.8785697967 1.8563003522 2.0024758186 1.9913306621 1.9779583789 
2.1243706857 2.1243706857 2.1243706857 2.1243706857 2.2408671392 2.2510113037 2.2630782103 2.2776669786 2.295651703 
2.3494282469 2.3680303173 2.3899057108 2.4159740166 2.4475202889 2.486385773 2.448570738 2.4736848652 2.5028148801 
2.5369440334 2.5773755784 2.6258554882 2.6847397011 2.5377803997 2.5675431237 2.6015718084 2.6407557529 2.6862098746 
2.7393287203 2.8018393335 2.8758309421 1.6743954455 1.6743954455 1.7840462375 1.6743954455 1.7840462375 1.8974821136 
1.6743954455 1.7840462375 1.8974821136 2.0119052671 1.6743954455 1.7840462375 1.8974821136 2.0119052671 2.1243706857 
1.6743954455 1.7840462375 1.8974821136 2.0119052671 2.1243706857 2.232221744 1.6743954455 1.7840462375 1.8974821136 
2.0119052671 2.1243706857 2.232221744 2.3334263672 1.6743954455 1.7840462375 1.8974821136 2.0119052671 2.1243706857 
2.232221744 2.3334263672 2.426721652 1.4671972081 1.3575464161 1.4671972081 1.24411054 1.3575464161 1.4671972081 
1.1296873865 1.24411054 1.3575464161 1.4671972081 1.0172219679 1.1296873865 1.24411054 1.3575464161 1.4671972081 
0.90937090954 1.0172219679 1.1296873865 1.24411054 1.3575464161 1.4671972081 0.80816628637 0.90937090954 1.0172219679 
1.1296873865 1.24411054 1.3575464161 1.4671972081 0.71487100155 0.80816628637 0.90937090954 1.0172219679 1.1296873865 
1.24411054 1.3575464161 1.4671972081 0.60381225391 0.57404952988 0.69302191562 0.54002084522 0.66790778838 0.79216440667 
0.50083690068 0.63877777351 0.77356233629 0.90072551443 0.45538277901 0.60464862014 0.75168694275 0.89058134991 1.0172219679 
0.40226393329 0.56421707518 0.72561863695 0.87851444325 1.0172219679 1.139116835 0.33975332011 0.51573716537 0.69407236469 
0.86392567495 1.0172219679 1.1502619915 1.2630228569 0.26576171152 0.45685295248 0.6552068806 0.84594095064 1.0172219679 
1.1636342747 1.2852923014 1.3852070904 0.22715816343 0.3129712797 0.49462574053 0.49462574053 0.68021497688 0.77059342779 
1.0172219679 1.0172219679 1.0172219679 1.0172219679 2.1243706857 1.5707963268 1.3676273807 1.271087727 1.2156949949 
2.6469669131 2.1243706857 1.7739652728 1.5707963268 1.447813335 1.3676273807 2.8286213739 2.4613776767 2.1243706857 
1.8705049266 1.6937793186 1.5707963268 1.4827341049 2.9144344902 2.6469669131 2.3709992258 2.1243706857 1.9258976586 
1.7739652728 1.6588585487 1.5707963268 1.7563855631 1.8563003522 1.8785697967 1.9779583789 1.9913306621 2.0024758186 
2.1243706857 2.1243706857 2.1243706857 2.1243706857 2.295651703 2.2776669786 2.2630782103 2.2510113037 2.2408671392 
2.486385773 2.4475202889 2.4159740166 2.3899057108 2.3680303173 2.3494282469 2.6847397011 2.6258554882 2.5773755784 
2.5369440334 2.5028148801 2.4736848652 2.448570738 2.8758309421 2.8018393335 2.7393287203 2.6862098746 2.6407557529 
2.6015718084 2.5675431237 2.5377803997 5.8604937156 5.901393709 5.9723133995 5.9473927383 6.0216547488 6.0927478736 
5.9992719463 6.0767621038 6.1501452836 6.2190157008 6.0578962336 6.1383094565 6.2134963469 0 0.064169606361 
6.1241815303 6.206940195 6.2831853072 0.069688960264 0.13304002361 0.19043743361 6.1990255847 0 0.07624511221 
0.14487585072 0.20642320337 0.26153055843 0.3108719077 0 0.084159722458 0.15900377685 0.22528907359 0.28391336087 
0.3357925689 0.38179159818 0.42269159155 5.8604937156 5.9723133995 5.901393709 6.0927478736 6.0216547488 5.9473927383 
6.2190157008 6.1501452836 6.0767621038 5.9992719463 0.064169606361 0 6.2134963469 6.1383094565 6.0578962336 
0.19043743361 0.13304002361 0.069688960264 6.2831853072 6.206940195 6.1241815303 0.3108719077 0.26153055843 0.20642320337 
0.14487585072 0.07624511221 6.2831853072 6.1990255847 0.42269159155 0.38179159818 0.3357925689 0.28391336087 0.22528907359 
0.15900377685 0.084159722458 0 5.6793730533 5.7091357773 5.5901633916 5.743164462 5.6152775188 5.4910209005 
5.7823484065 5.6444075337 5.5096229709 5.3824597928 5.8278025282 5.678536687 5.5314983644 5.3926039573 5.2659633393 
5.8809213739 5.718968232 5.5575666702 5.4046708639 5.2659633393 5.1440684722 5.9434319871 5.7674481418 5.5891129425 
5.4192596322 5.2659633393 5.1329233157 5.0201624502 6.0174235957 5.8263323547 5.6279784266 5.4372443565 5.2659633393 
5.1195510325 4.9978930058 4.8979782167 1.3852070904 1.2852923014 1.2630228569 1.1636342747 1.1502619915 1.139116835 
1.0172219679 1.0172219679 1.0172219679 1.0172219679 0.84594095064 0.86392567495 0.87851444325 0.89058134991 0.90072551443 
0.6552068806 0.69407236469 0.72561863695 0.75168694275 0.77356233629 0.79216440667 0.45685295248 0.51573716537 0.56421707518 
0.60464862014 0.63877777351 0.66790778838 0.69302191562 0.26576171152 0.33975332011 0.40226393329 0.45538277901 0.50083690068 
0.54002084522 0.57404952988 0.60381225391 
