# vtk DataFile Version 4.1
vtk output
ASCII
DATASET POLYDATA
POINTS 1002 float
46.342 96.7608 94.9852 47.1114 99.4679 102.652 45.2624 102.206 91.621 
45.4405 104.79 99.8564 51.183 101.801 98.4164 50.8482 104.767 95.3497 
40.0632 96.4538 100.477 39.0243 100.805 97.819 52.6033 104.106 103.919 
49.8604 99.8304 89.4814 41.9689 101.497 105.029 42.9018 96.4564 92.6273 
46.1604 97.3378 95.5193 45.9573 97.9776 96.1577 45.8164 98.5677 96.8497 
45.7401 99.0272 97.6605 45.7148 99.3666 98.6737 45.8157 99.5581 99.7612 
46.0933 99.5941 100.71 46.4353 99.5864 101.454 46.777 99.5414 102.065 
46.553 97.4332 95.0761 46.8784 98.0802 95.2377 47.3198 98.7163 95.4494 
47.7609 99.3621 95.6646 48.1955 100.001 95.9585 48.6898 100.576 96.3212 
49.248 101.022 96.7635 49.8644 101.372 97.3659 50.5111 101.642 97.9611 
46.0649 96.4057 95.278 45.7597 96.1217 95.6684 45.3656 96.0044 96.115 
44.8282 96.0534 96.6176 44.143 96.2036 97.2207 43.3848 96.4158 97.92 
42.5821 96.5245 98.7149 41.7012 96.4146 99.5215 40.7974 96.349 100.128 
46.6123 96.6838 94.5536 46.9128 96.7106 94.0638 47.2548 96.8613 93.4828 
47.7544 97.0276 92.8754 48.3784 97.1776 92.2642 48.9339 97.4401 91.5866 
49.3416 97.8854 90.9196 49.6192 98.4781 90.3571 49.7686 99.16 89.8848 
46.257 95.9923 94.6657 46.1296 95.1048 94.3151 46.0178 94.1054 93.9929 
45.7455 93.3482 93.7582 45.1663 93.2601 93.5033 44.4923 93.7918 93.1655 
43.9597 94.5439 92.8529 43.5464 95.2512 92.672 43.1902 95.8814 92.6124 
47.5444 99.8636 102.438 48.1181 100.189 102.209 48.8259 100.353 101.871 
49.4705 100.512 101.432 49.9337 100.791 100.998 50.3448 101.083 100.576 
50.6788 101.391 100.125 50.8719 101.675 99.5947 51.0227 101.798 99.0035 
46.4619 99.1236 102.549 45.7476 98.7425 102.485 44.9838 98.3239 102.434 
44.2363 97.8689 102.355 43.5111 97.3831 102.232 42.7781 96.9799 102.012 
42.0294 96.6807 101.7 41.3377 96.4873 101.324 40.692 96.4175 100.908 
47.7939 99.6165 103.074 48.6613 99.7405 103.477 49.6014 99.9426 103.869 
50.4115 100.327 104.204 51.1432 100.802 104.449 51.801 101.403 104.596 
52.2988 102.156 104.624 52.5256 102.916 104.464 52.5875 103.552 104.169 
46.9504 99.2994 103.22 46.5917 99.3169 103.802 46.1141 99.4136 104.29 
45.5594 99.5273 104.738 44.8723 99.6472 105.149 44.0674 99.8168 105.374 
43.2535 100.16 105.445 42.5986 100.662 105.441 42.2034 101.151 105.288 
45.2683 102.485 92.2674 45.2527 102.786 93.0165 45.2473 103.099 93.8801 
45.2487 103.419 94.8147 45.2115 103.789 95.6945 45.2071 104.115 96.5722 
45.2862 104.306 97.5315 45.355 104.477 98.4241 45.3939 104.655 99.181 
45.7648 102.451 91.5348 46.3086 102.711 91.5187 46.8925 103.01 91.6053 
47.4867 103.34 91.8 48.0731 103.657 92.1449 48.6605 103.972 92.6557 
49.2811 104.274 93.2314 49.8819 104.524 93.8885 50.4024 104.689 94.6223 
44.7719 102.123 92.1559 44.2381 102.031 92.7949 43.6534 101.933 93.5039 
43.0079 101.819 94.2643 42.333 101.678 95.0608 41.6389 101.516 95.8075 
40.925 101.293 96.4572 40.2371 101.062 96.9915 39.5966 100.911 97.4278 
45.5668 102.083 90.9319 45.9132 101.972 90.2041 46.2773 101.879 89.3967 
46.6212 101.8 88.6495 47.0994 101.704 88.2571 47.7931 101.471 88.3383 
48.5261 101.079 88.6679 49.0801 100.696 88.9922 49.5005 100.301 89.2197 
44.9217 101.863 91.3274 44.5241 101.467 91.0782 44.0967 101.047 90.912 
43.6153 100.576 90.8199 43.1672 99.9512 90.8173 42.9163 99.2098 91.0395 
42.9096 98.4659 91.5207 42.9447 97.7448 92.0023 42.9066 97.0585 92.333 
46.0489 104.973 99.5308 46.6259 105.206 99.1384 47.1892 105.434 98.6685 
47.7951 105.572 98.1567 48.4504 105.584 97.6471 49.1072 105.508 97.1244 
49.7141 105.411 96.5721 50.2202 105.28 96.0641 50.5885 105.051 95.6717 
44.815 104.519 99.7533 44.123 104.209 99.6091 43.3528 103.87 99.4471 
42.5468 103.541 99.2808 41.8422 103.103 99.1019 41.2266 102.55 98.8782 
40.585 102.059 98.6252 39.9728 101.633 98.363 39.4485 101.216 98.0855 
45.9446 104.966 100.392 46.5479 105.118 100.976 47.2231 105.262 101.522 
47.9616 105.367 102.031 48.7688 105.366 102.532 49.6555 105.294 102.998 
50.5934 105.189 103.393 51.4617 104.967 103.685 52.129 104.571 103.849 
45.1347 104.686 100.51 44.8324 104.508 101.198 44.524 104.238 101.849 
44.1585 103.893 102.428 43.7562 103.528 102.986 43.3442 103.162 103.525 
42.9246 102.794 104.042 42.5461 102.422 104.501 42.2347 101.987 104.825 
51.7619 101.818 98.2036 52.2995 101.953 97.9309 52.6595 102.252 97.6137 
52.8312 102.644 97.1559 52.8222 103.189 96.6766 52.6348 103.791 96.3147 
52.2493 104.23 96.0203 51.7603 104.463 95.7721 51.2781 104.608 95.5674 
51.8809 101.825 99.0664 52.7061 101.715 99.6209 53.4651 101.674 100.243 
54.008 101.85 100.958 54.3708 102.11 101.754 54.509 102.504 102.638 
54.2913 103.068 103.293 53.7986 103.558 103.591 53.2129 103.868 103.761 
50.9877 101.599 97.4908 50.8086 101.356 96.4076 50.6597 101.109 95.2556 
50.5935 100.782 94.0702 50.5662 100.434 92.8977 50.5617 100.136 91.8402 
50.7075 99.7941 90.8911 50.8025 99.5546 90.0765 50.4771 99.6252 89.6151 
51.2051 104.999 96.2412 51.6493 105.248 97.1862 52.1241 105.48 98.1968 
52.503 105.557 99.2805 52.8325 105.484 100.348 53.0942 105.369 101.333 
53.1988 105.177 102.273 53.1328 104.862 103.047 52.9246 104.487 103.564 
50.8261 104.418 94.5406 50.827 104.026 93.585 50.8128 103.557 92.5506 
50.7859 103.056 91.4541 50.865 102.621 90.2664 51.1206 102.168 89.1835 
51.2752 101.529 88.6496 50.9599 100.861 88.778 50.3965 100.318 89.1318 
39.2606 96.6334 100.301 38.4537 96.7636 100.11 37.7153 96.9609 99.8727 
37.1871 97.4306 99.5644 36.9673 98.1628 99.2106 37.0324 98.9258 98.8051 
37.3798 99.5444 98.3993 37.9144 100.033 98.1147 38.4637 100.458 97.9314 
39.8994 96.7513 100.876 39.8351 97.1793 101.263 39.8365 97.6825 101.739 
39.8817 98.1871 102.336 39.9354 98.6116 103.044 40.0178 99.0515 103.802 
40.2534 99.6536 104.424 40.7486 100.308 104.758 41.3627 100.918 104.926 
39.8379 96.3826 99.8208 39.8201 96.3795 98.9921 40.1345 96.4342 98.147 
40.721 96.4223 97.3298 41.2614 96.2601 96.3843 41.7574 96.0604 95.4188 
42.2265 96.0203 94.6319 42.5487 96.0985 93.9346 42.7521 96.225 93.262 
38.8144 100.912 98.4485 38.7659 100.955 99.2376 38.8374 101.049 100.166 
39.0147 101.199 101.151 39.3539 101.276 102.039 39.7976 101.302 102.812 
40.2705 101.381 103.569 40.809 101.445 104.205 41.4029 101.45 104.648 
38.9928 100.453 97.3325 39.0716 100.046 96.8776 39.2791 99.6081 96.3936 
39.6659 99.1411 95.8981 40.3069 98.6884 95.4717 41.0602 98.247 94.9756 
41.6162 97.7752 94.2482 42.0985 97.3129 93.5997 42.5435 96.8661 93.079 
51.9212 103.999 104.23 51.1084 103.849 104.492 50.1225 103.701 104.718 
48.948 103.572 105.039 47.6849 103.348 105.292 46.3676 102.979 105.343 
44.9872 102.628 105.381 43.7146 102.289 105.396 42.7362 101.888 105.264 
49.1455 99.5704 89.6487 48.4041 99.1825 89.8145 47.5587 98.7432 90.057 
46.6372 98.3405 90.3506 45.801 97.8658 90.5984 45.0245 97.3324 90.8353 
44.2156 96.8831 91.0879 43.5696 96.6026 91.4545 43.2007 96.4729 92.0123 
46.3803 98.0251 95.6662 46.7734 98.6533 95.9013 46.267 98.6236 96.3455 
47.2571 99.286 96.1315 46.7212 99.2278 96.6147 46.2055 99.1754 97.1093 
47.6928 99.9672 96.411 47.1797 99.877 96.9197 46.6592 99.7698 97.5023 
46.1559 99.6282 98.0546 48.1961 100.561 96.8209 47.7003 100.49 97.3832 
47.1741 100.359 98.0051 46.6718 100.174 98.5744 46.2009 99.9091 99.1497 
48.8213 100.998 97.3288 48.4021 100.91 97.9598 47.9155 100.789 98.5912 
47.4186 100.558 99.1207 46.9364 100.266 99.6065 46.4584 99.9696 100.19 
49.4963 101.362 97.9306 49.2057 101.196 98.5534 48.8254 101.031 99.1793 
48.3535 100.799 99.6752 47.88 100.483 100.093 47.3427 100.236 100.604 
46.8048 99.9963 101.1 50.239 101.674 98.5642 50.0299 101.497 99.1579 
49.769 101.225 99.7233 49.3474 100.976 100.208 48.8917 100.672 100.607 
48.357 100.425 101.062 47.7175 100.269 101.531 47.1694 99.9768 101.838 
46.9184 97.3825 94.6008 47.2941 97.4319 94.0613 47.3156 98.0562 94.7343 
47.7166 97.5617 93.4646 47.747 98.1284 94.1502 47.7616 98.7296 94.9205 
48.2802 97.6831 92.8725 48.2386 98.2386 93.547 48.2277 98.8011 94.316 
48.2232 99.3792 95.1555 48.8878 97.8557 92.2365 48.7983 98.3766 92.9352 
48.758 98.9079 93.6934 48.7287 99.446 94.5618 48.7182 100.018 95.469 
49.4433 98.1391 91.4996 49.3445 98.5836 92.2489 49.3135 99.0213 93.0647 
49.2678 99.5327 93.9629 49.2343 100.088 94.9066 49.2299 100.607 95.8294 
49.9213 98.5209 90.7764 49.8727 98.8499 91.4809 49.8047 99.2267 92.3497 
49.8002 99.6223 93.3154 49.7354 100.136 94.3311 49.7234 100.637 95.3171 
49.7761 101.038 96.3175 50.257 99.0304 90.1533 50.3823 99.1482 90.7414 
50.2486 99.5095 91.5933 50.2277 99.8421 92.569 50.2144 100.232 93.648 
50.1879 100.673 94.745 50.2441 101.046 95.8276 50.3696 101.357 96.9203 
50.9841 100.152 89.3822 51.3893 100.795 89.2804 51.1599 100.169 90.0705 
51.4731 101.533 89.554 51.3972 100.87 90.2449 50.9705 100.422 91.0554 
51.2787 102.191 90.3876 51.4499 101.606 90.799 51.1996 101.061 91.447 
50.839 100.707 92.1551 51.1544 102.743 91.5213 51.4454 102.303 91.7715 
51.4147 101.752 92.2314 51.1672 101.288 92.8162 50.9026 100.986 93.4342 
51.1575 103.292 92.6738 51.4911 102.94 92.9236 51.6437 102.444 93.3048 
51.5557 101.927 93.7944 51.3378 101.547 94.3196 51.0334 101.291 94.8104 
51.1937 103.81 93.7514 51.5724 103.529 94.0082 51.871 103.088 94.3437 
51.9648 102.546 94.7606 51.856 102.096 95.2727 51.5944 101.772 95.7365 
51.2315 101.521 96.0991 51.2292 104.244 94.7271 51.6681 104.043 94.9535 
52.0824 103.702 95.2371 52.3391 103.165 95.5754 52.383 102.612 96.0328 
52.2369 102.21 96.558 51.9318 101.902 96.9513 51.4939 101.685 97.249 
52.5246 101.872 98.8159 53.0359 102.139 98.5544 53.31 101.918 99.4155 
53.2863 102.584 98.1907 53.6863 102.416 99.1572 53.8983 102.159 100.081 
53.3163 103.155 97.723 53.7917 103.064 98.7629 54.1297 102.884 99.7794 
54.287 102.562 100.781 53.1575 103.82 97.3408 53.6692 103.746 98.3826 
54.1084 103.623 99.431 54.3943 103.42 100.483 54.5127 103.015 101.59 
52.781 104.37 97.0294 53.2981 104.369 98.104 53.7565 104.247 99.1829 
54.1797 104.144 100.235 54.4309 103.939 101.347 54.4704 103.536 102.487 
[...]
POINT_DATA 1002
SCALARS _paraPhi double
LOOKUP_TABLE default
6.2831853072 3.1415926536 6.2831853072 3.1415926536 4.7123889804 4.7123889804 1.5707963268 1.5707963268 3.6951670125 
5.7296109483 2.5880182947 0.5535743589 6.2831853072 6.2831853072 6.2831853072 6.2831853072 3.1415926536 3.1415926536 
3.1415926536 3.1415926536 3.1415926536 6.1053039672 5.898798347 5.6768734901 5.4599499503 5.2659633393 5.1032165617 
4.9713148346 4.8656852733 4.7809517865 0.17788134 0.38438696014 0.60631181711 0.82323535693 1.0172219679 1.1799687454 
1.3118704726 1.4175000338 1.5022335207 6.1892828907 6.1070320098 6.035312792 5.9728339911 5.9183214791 5.8706119594 
5.8286879411 5.7916808611 5.7588591896 0.093902416448 0.17615329733 0.2478725152 0.31035131605 0.36486382811 0.41257334776 
0.45449736604 0.4915044461 0.52432611754 3.3194739936 3.5259796137 3.7479044707 3.9648280105 4.1588146215 4.321561399 
4.4534631262 4.5590926874 4.6438261743 2.9637113136 2.7572056934 2.5352808365 2.3183572967 2.1243706857 1.9616239082 
1.829722181 1.7240926197 1.6393591329 3.23549507 3.3177459509 3.3894651688 3.4519439696 3.5064564817 3.5541660013 
3.5960900196 3.6330970997 3.6659187711 3.0476902371 2.9654393563 2.8937201384 2.8312413375 2.7767288255 2.7290193058 
2.6870952876 2.6500882075 2.617266536 6.2831853072 6.2831853072 6.2831853072 6.2831853072 3.1415926536 3.1415926536 
3.1415926536 3.1415926536 3.1415926536 6.1053039672 5.898798347 5.6768734901 5.4599499503 5.2659633393 5.1032165617 
4.9713148346 4.8656852733 4.7809517865 0.17788134 0.38438696014 0.60631181711 0.82323535693 1.0172219679 1.1799687454 
1.3118704726 1.4175000338 1.5022335207 6.1892828907 6.1070320098 6.035312792 5.9728339911 5.9183214791 5.8706119594 
5.8286879411 5.7916808611 5.7588591896 0.093902416448 0.17615329733 0.2478725152 0.31035131605 0.36486382811 0.41257334776 
0.45449736604 0.4915044461 0.52432611754 3.3194739936 3.5259796137 3.7479044707 3.9648280105 4.1588146215 4.321561399 
4.4534631262 4.5590926874 4.6438261743 2.9637113136 2.7572056934 2.5352808365 2.3183572967 2.1243706857 1.9616239082 
1.829722181 1.7240926197 1.6393591329 3.23549507 3.3177459509 3.3894651688 3.4519439696 3.5064564817 3.5541660013 
3.5960900196 3.6330970997 3.6659187711 3.0476902371 2.9654393563 2.8937201384 2.8312413375 2.7767288255 2.7290193058 
2.6870952876 2.6500882075 2.617266536 4.7123889804 4.7123889804 4.7123889804 4.7123889804 4.7123889804 4.7123889804 
4.7123889804 4.7123889804 4.7123889804 4.6087898617 4.4991390697 4.3857031936 4.2712800401 4.1588146215 4.0509635631 
3.94975894 3.8564636551 3.7716124825 4.8159880991 4.9256388911 5.0390747672 5.1534979207 5.2659633393 5.3738143976 
5.4750190208 5.5683143056 5.6531654782 4.6087898617 4.4991390697 4.3857031936 4.2712800401 4.1588146215 4.0509635631 
3.94975894 3.8564636551 3.7716124825 4.8159880991 4.9256388911 5.0390747672 5.1534979207 5.2659633393 5.3738143976 
5.4750190208 5.5683143056 5.6531654782 1.5707963268 1.5707963268 1.5707963268 1.5707963268 1.5707963268 1.5707963268 
1.5707963268 1.5707963268 1.5707963268 1.6743954455 1.7840462375 1.8974821136 2.0119052671 2.1243706857 2.232221744 
2.3334263672 2.426721652 2.5115728246 1.4671972081 1.3575464161 1.24411054 1.1296873865 1.0172219679 0.90937090954 
0.80816628637 0.71487100155 0.63001982895 1.6743954455 1.7840462375 1.8974821136 2.0119052671 2.1243706857 2.232221744 
2.3334263672 2.426721652 2.5115728246 1.4671972081 1.3575464161 1.24411054 1.1296873865 1.0172219679 0.90937090954 
0.80816628637 0.71487100155 0.63001982895 3.6007720849 3.4966939854 3.3839471039 3.2645756454 3.1415926536 3.0186096618 
2.8992382033 2.7864913217 2.6824132222 5.8240058758 5.9280839753 6.0408308569 6.1602023154 6.2831853072 0.12298299178 
0.2423544503 0.35510133185 0.45917943135 6.0560271438 5.7885595667 5.9702140275 5.5125918794 5.6029703303 5.7885595667 
5.2659633393 5.2659633393 5.2659633393 5.2659633393 5.0674903122 5.0120975802 4.9155579264 4.7123889804 4.1588146215 
4.9155579264 4.8353719722 4.7123889804 4.5092200343 4.1588146215 3.6362183941 4.8004512023 4.7123889804 4.5894059886 
4.4126803806 4.1588146215 3.8218076305 3.4545639333 4.7123889804 4.6243267584 4.5092200343 4.3572876485 4.1588146215 
3.9121860814 3.6362183941 3.368750817 6.0174235957 5.9434319871 5.8263323547 5.8809213739 5.7674481418 5.6279784266 
5.8278025282 5.718968232 5.5891129425 5.4372443565 5.7823484065 5.678536687 5.5575666702 5.4192596322 5.2659633393 
5.743164462 5.6444075337 5.5314983644 5.4046708639 5.2659633393 5.1195510325 5.7091357773 5.6152775188 5.5096229709 
5.3926039573 5.2659633393 5.1329233157 4.9978930058 5.6793730533 5.5901633916 5.4910209005 5.3824597928 5.2659633393 
5.1440684722 5.0201624502 4.8979782167 5.5683143056 5.4750190208 5.4750190208 5.3738143976 5.3738143976 5.3738143976 
5.2659633393 5.2659633393 5.2659633393 5.2659633393 5.1534979207 5.1534979207 5.1534979207 5.1534979207 5.1534979207 
5.0390747672 5.0390747672 5.0390747672 5.0390747672 5.0390747672 5.0390747672 4.9256388911 4.9256388911 4.9256388911 
4.9256388911 4.9256388911 4.9256388911 4.9256388911 4.8159880991 4.8159880991 4.8159880991 4.8159880991 4.8159880991 
4.8159880991 4.8159880991 4.8159880991 4.6087898617 4.6087898617 4.4991390697 4.6087898617 4.4991390697 4.3857031936 
4.6087898617 4.4991390697 4.3857031936 4.2712800401 4.6087898617 4.4991390697 4.3857031936 4.2712800401 4.1588146215 
4.6087898617 4.4991390697 4.3857031936 4.2712800401 4.1588146215 4.0509635631 4.6087898617 4.4991390697 4.3857031936 
4.2712800401 4.1588146215 4.0509635631 3.94975894 4.6087898617 4.4991390697 4.3857031936 4.2712800401 4.1588146215 
4.0509635631 3.94975894 3.8564636551 4.526799744 4.4046155105 4.426884955 4.2807094886 4.2918546451 4.3052269283 
4.1588146215 4.1588146215 4.1588146215 4.1588146215 4.042318168 4.0321740035 4.0201070968 4.0055183285 3.9875336042 
3.9337570603 3.9151549899 3.8932795963 3.8672112905 3.8356650183 3.7967995342 3.8346145692 3.809500442 3.7803704271 
3.7462412737 3.7058097288 3.657329819 3.5984456061 3.7454049075 3.7156421835 3.6816134988 3.6424295543 3.5969754326 
3.5438565869 3.4813459737 3.4073543651 3.5642842451 3.4524645613 3.5233842518 3.3320300872 3.403123212 3.4773852225 
3.20576226 3.2746326772 3.348015857 3.4255060145 3.0774230472 3.1415926536 3.2112816139 3.2864685043 3.3668817272 
2.95115522 3.00855263 3.0719036933 3.1415926536 3.2178377658 3.3005964304 2.8307207459 2.8800620952 2.9351694502 
2.9967168029 3.0653475414 3.1415926536 3.225752376 2.718901062 2.7598010554 2.8058000847 2.8576792927 2.91630358 
2.9825888767 3.0574329311 3.1415926536 3.5642842451 3.5233842518 3.4524645613 3.4773852225 3.403123212 3.3320300872 
3.4255060145 3.348015857 3.2746326772 3.20576226 3.3668817272 3.2864685043 3.2112816139 3.1415926536 3.0774230472 
3.3005964304 3.2178377658 3.1415926536 3.0719036933 3.00855263 2.95115522 3.225752376 3.1415926536 3.0653475414 
2.9967168029 2.9351694502 2.8800620952 2.8307207459 3.1415926536 3.0574329311 2.9825888767 2.91630358 2.8576792927 
2.8058000847 2.7598010554 2.718901062 4.526799744 4.426884955 4.4046155105 4.3052269283 4.2918546451 4.2807094886 
4.1588146215 4.1588146215 4.1588146215 4.1588146215 3.9875336042 4.0055183285 4.0201070968 4.0321740035 4.042318168 
3.7967995342 3.8356650183 3.8672112905 3.8932795963 3.9151549899 3.9337570603 3.5984456061 3.657329819 3.7058097288 
3.7462412737 3.7803704271 3.809500442 3.8346145692 3.4073543651 3.4813459737 3.5438565869 3.5969754326 3.6424295543 
3.6816134988 3.7156421835 3.7454049075 4.7123889804 4.8004512023 4.6243267584 4.9155579264 4.7123889804 4.5092200343 
5.0674903122 4.8353719722 4.5894059886 4.3572876485 5.2659633393 5.0120975802 4.7123889804 4.4126803806 4.1588146215 
5.5125918794 5.2659633393 4.9155579264 4.5092200343 4.1588146215 3.9121860814 5.7885595667 5.6029703303 5.2659633393 
4.7123889804 4.1588146215 3.8218076305 3.6362183941 6.0560271438 5.9702140275 5.7885595667 5.2659633393 4.1588146215 
3.6362183941 3.4545639333 3.368750817 0.22715816343 0.49462574053 0.3129712797 0.77059342779 0.68021497688 0.49462574053 
1.0172219679 1.0172219679 1.0172219679 1.0172219679 1.2156949949 1.271087727 1.3676273807 1.5707963268 2.1243706857 
1.3676273807 1.447813335 1.5707963268 1.7739652728 2.1243706857 2.6469669131 1.4827341049 1.5707963268 1.6937793186 
1.8705049266 2.1243706857 2.4613776767 2.8286213739 1.5707963268 1.6588585487 1.7739652728 1.9258976586 2.1243706857 
2.3709992258 2.6469669131 2.9144344902 1.7563855631 1.8785697967 1.8563003522 2.0024758186 1.9913306621 1.9779583789 
2.1243706857 2.1243706857 2.1243706857 2.1243706857 2.2408671392 2.2510113037 2.2630782103 2.2776669786 2.295651703 
2.3494282469 2.3680303173 2.3899057108 2.4159740166 2.4475202889 2.486385773 2.448570738 2.4736848652 2.5028148801 
2.5369440334 2.5773755784 2.6258554882 2.6847397011 2.5377803997 2.5675431237 2.6015718084 2.6407557529 2.6862098746 
2.7393287203 2.8018393335 2.8758309421 1.6743954455 1.6743954455 1.7840462375 1.6743954455 1.7840462375 1.8974821136 
1.6743954455 1.7840462375 1.8974821136 2.0119052671 1.6743954455 1.7840462375 1.8974821136 2.0119052671 2.1243706857 
1.6743954455 1.7840462375 1.8974821136 2.0119052671 2.1243706857 2.232221744 1.6743954455 1.7840462375 1.8974821136 
2.0119052671 2.1243706857 2.232221744 2.3334263672 1.6743954455 1.7840462375 1.8974821136 2.0119052671 2.1243706857 
2.232221744 2.3334263672 2.426721652 1.4671972081 1.3575464161 1.4671972081 1.24411054 1.3575464161 1.4671972081 
1.1296873865 1.24411054 1.3575464161 1.4671972081 1.0172219679 1.1296873865 1.24411054 1.3575464161 1.4671972081 
0.90937090954 1.0172219679 1.1296873865 1.24411054 1.3575464161 1.4671972081 0.80816628637 0.90937090954 1.0172219679 
1.1296873865 1.24411054 1.3575464161 1.4671972081 0.71487100155 0.80816628637 0.90937090954 1.0172219679 1.1296873865 
1.24411054 1.3575464161 1.4671972081 0.60381225391 0.57404952988 0.69302191562 0.54002084522 0.66790778838 0.79216440667 
0.50083690068 0.63877777351 0.77356233629 0.90072551443 0.45538277901 0.60464862014 0.75168694275 0.89058134991 1.0172219679 
0.40226393329 0.56421707518 0.72561863695 0.87851444325 1.0172219679 1.139116835 0.33975332011 0.51573716537 0.69407236469 
0.86392567495 1.0172219679 1.1502619915 1.2630228569 0.26576171152 0.45685295248 0.6552068806 0.84594095064 1.0172219679 
1.1636342747 1.2852923014 1.3852070904 0.22715816343 0.3129712797 0.49462574053 0.49462574053 0.68021497688 0.77059342779 
1.0172219679 1.0172219679 1.0172219679 1.0172219679 2.1243706857 1.5707963268 1.3676273807 1.271087727 1.2156949949 
2.6469669131 2.1243706857 1.7739652728 1.5707963268 1.447813335 1.3676273807 2.8286213739 2.4613776767 2.1243706857 
1.8705049266 1.6937793186 1.5707963268 1.4827341049 2.9144344902 2.6469669131 2.3709992258 2.1243706857 1.9258976586 
1.7739652728 1.6588585487 1.5707963268 1.7563855631 1.8563003522 1.8785697967 1.9779583789 1.9913306621 2.0024758186 
2.1243706857 2.1243706857 2.1243706857 2.1243706857 2.295651703 2.2776669786 2.2630782103 2.2510113037 2.2408671392 
2.486385773 2.4475202889 2.4159740166 2.3899057108 2.3680303173 2.3494282469 2.6847397011 2.6258554882 2.5773755784 
2.5369440334 2.5028148801 2.4736848652 2.448570738 2.8758309421 2.8018393335 2.7393287203 2.6862098746 2.6407557529 
2.6015718084 2.5675431237 2.5377803997 5.8604937156 5.901393709 5.9723133995 5.9473927383 6.0216547488 6.0927478736 
5.9992719463 6.0767621038 6.1501452836 6.2190157008 6.0578962336 6.1383094565 6.2134963469 0 0.064169606361 
6.1241815303 6.206940195 6.2831853072 0.069688960264 0.13304002361 0.19043743361 6.1990255847 0 0.07624511221 
0.14487585072 0.20642320337 0.26153055843 0.3108719077 0 0.084159722458 0.15900377685 0.22528907359 0.28391336087 
0.3357925689 0.38179159818 0.42269159155 5.8604937156 5.9723133995 5.901393709 6.0927478736 6.0216547488 5.9473927383 
6.2190157008 6.1501452836 6.0767621038 5.9992719463 0.064169606361 0 6.2134963469 6.1383094565 6.0578962336 
0.19043743361 0.13304002361 0.069688960264 6.2831853072 6.206940195 6.1241815303 0.3108719077 0.26153055843 0.20642320337 
0.14487585072 0.07624511221 6.2831853072 6.1990255847 0.42269159155 0.38179159818 0.3357925689 0.28391336087 0.22528907359 
0.15900377685 0.084159722458 0 5.6793730533 5.7091357773 5.5901633916 5.743164462 5.6152775188 5.4910209005 
5.7823484065 5.6444075337 5.5096229709 5.3824597928 5.8278025282 5.678536687 5.5314983644 5.3926039573 5.2659633393 
5.8809213739 5.718968232 5.5575666702 5.4046708639 5.2659633393 5.1440684722 5.9434319871 5.7674481418 5.5891129425 
5.4192596322 5.2659633393 5.1329233157 5.0201624502 6.0174235957 5.8263323547 5.6279784266 5.4372443565 5.2659633393 
5.1195510325 4.9978930058 4.8979782167 1.3852070904 1.2852923014 1.2630228569 1.1636342747 1.1502619915 1.139116835 
1.0172219679 1.0172219679 1.0172219679 1.0172219679 0.84594095064 0.86392567495 0.87851444325 0.89058134991 0.90072551443 
0.6552068806 0.69407236469 0.72561863695 0.75168694275 0.77356233629 0.79216440667 0.45685295248 0.51573716537 0.56421707518 
0.60464862014 0.63877777351 0.66790778838 0.69302191562 0.26576171152 0.33975332011 0.40226393329 0.45538277901 0.50083690068 
0.54002084522 0.57404952988 0.60381225391 
