# vtk DataFile Version 4.1
vtk output
ASCII
DATASET POLYDATA
POINTS 1002 float
46.3193 96.4892 95.3558 49.3387 98.3893 103.268 43.8494 102.567 92.1618 
44.7146 105.676 100.498 53.3553 101.659 98.3731 51.896 105.272 95.7029 
39.8485 95.0726 100.864 37.5885 100.757 98.5348 54.2275 104.604 105.001 
49.8261 99.9782 89.3391 42.8396 101.56 105.716 41.8397 96.5499 93.187 
46.2803 97.0457 96.013 46.2365 97.6396 96.7645 46.1703 98.2706 97.539 
46.1288 98.8458 98.3948 46.2765 99.2447 99.4655 46.7604 99.3105 100.511 
47.4991 99.0128 101.244 48.2557 98.5918 101.829 48.8727 98.3739 102.536 
46.7316 97.19 95.5097 47.2234 97.8976 95.6993 47.8363 98.5359 95.9843 
48.6111 99.1017 96.3503 49.3841 99.7019 96.715 50.1358 100.295 97.0607 
50.929 100.85 97.4447 51.7126 101.286 97.834 52.5265 101.527 98.132 
45.9141 96.1685 95.6047 45.5174 95.9203 95.9033 45.1127 95.732 96.376 
44.6172 95.5291 97.0547 43.9247 95.39 97.7815 43.0352 95.2887 98.5395 
42.1768 95.0905 99.3607 41.3803 94.9456 100.043 40.5919 94.9418 100.493 
46.58 96.4529 94.8596 46.895 96.5223 94.3046 47.3355 96.641 93.7024 
47.9103 96.8298 93.0151 48.5296 97.1175 92.2475 49.0916 97.4808 91.4442 
49.5621 97.8956 90.7231 49.7867 98.5434 90.1761 49.8189 99.2826 89.7447 
46.1348 95.663 94.9304 46.179 94.3684 94.602 46.2771 92.9025 94.3426 
45.8774 92.6234 94.0268 45.1479 93.3675 93.6605 44.4245 94.3758 93.4081 
43.7119 95.0593 93.2848 42.998 95.6608 93.2047 42.3618 96.1657 93.1881 
50.0165 98.5106 102.952 50.6744 98.7784 102.61 51.2626 99.1691 102.308 
51.753 99.6503 101.998 52.2117 100.118 101.592 52.6164 100.56 101.101 
52.8751 100.983 100.552 53.0119 101.345 99.8999 53.148 101.575 99.1317 
48.3892 98.2302 103.093 47.354 98.0428 102.872 46.2411 97.8191 102.642 
45.1406 97.5028 102.439 44.0934 97.0909 102.253 43.133 96.6044 102.036 
42.2962 96.0773 101.775 41.4816 95.6554 101.502 40.6487 95.3411 101.197 
50.1754 98.5778 103.787 50.9795 98.9127 104.254 51.7347 99.396 104.655 
52.4621 99.9457 105.018 53.1295 100.549 105.321 53.6816 101.286 105.493 
54.0289 102.2 105.494 54.2508 103.121 105.429 54.3215 103.956 105.273 
49.0968 98.4481 103.876 48.6814 98.6115 104.447 48.0821 98.8667 104.903 
47.356 99.2225 105.269 46.533 99.5394 105.656 45.6277 99.8258 105.961 
44.7307 100.204 106.073 43.9557 100.708 106.036 43.3292 101.176 105.924 
43.8859 102.857 92.8951 43.9025 103.158 93.7531 43.8996 103.563 94.6151 
43.8732 104.078 95.4402 43.8462 104.606 96.302 43.8721 105.09 97.1792 
43.9303 105.522 98.0314 44.068 105.784 98.9033 44.3489 105.803 99.747 
44.4589 102.846 92.1142 45.1274 103.143 92.1493 45.8287 103.474 92.2654 
46.574 103.834 92.4918 47.4037 104.166 92.8765 48.304 104.409 93.4026 
49.2668 104.657 93.9896 50.2347 104.921 94.5678 51.1044 105.124 95.1453 
43.2846 102.461 92.7141 42.6616 102.306 93.3685 41.9818 102.124 94.0437 
41.2395 101.916 94.7294 40.5069 101.68 95.4439 39.7526 101.478 96.1114 
38.9788 101.344 96.6891 38.3152 101.19 97.2561 37.8625 100.995 97.874 
44.1838 102.43 91.4174 44.5904 102.293 90.6316 45.0532 102.194 89.777 
45.5257 102.114 88.9075 46.1762 101.989 88.2724 47.1419 101.752 88.0871 
48.0971 101.342 88.3654 48.8001 100.884 88.6745 49.3286 100.439 89.0191 
43.459 102.168 91.8246 43.0556 101.676 91.5372 42.6606 101.088 91.3092 
42.2829 100.432 91.2196 41.7976 99.7307 91.1901 41.3787 98.9306 91.3 
41.2537 98.0839 91.6627 41.3966 97.4156 92.1936 41.6372 96.9368 92.7427 
45.3856 105.857 100.098 46.1116 106.061 99.6852 46.9094 106.213 99.2306 
47.7938 106.127 98.7019 48.6983 105.883 98.2147 49.5522 105.721 97.7725 
50.3251 105.64 97.2378 50.971 105.556 96.6146 51.4941 105.436 96.0975 
43.8161 105.564 100.438 42.8957 105.352 100.348 42.0807 104.932 100.218 
41.2882 104.405 100.07 40.5 103.842 99.8562 39.7751 103.224 99.5856 
39.1289 102.568 99.2672 38.5294 101.943 98.986 37.9956 101.355 98.7509 
45.5258 105.639 100.959 46.3854 105.666 101.504 47.3922 105.659 102.105 
48.5679 105.51 102.652 49.779 105.34 103.114 50.8683 105.305 103.666 
51.8816 105.316 104.237 52.8063 105.259 104.668 53.6013 105.024 104.897 
44.5089 105.52 101.199 44.2731 105.332 101.938 44.0339 105.08 102.666 
43.8079 104.742 103.356 43.6156 104.31 104.004 43.4396 103.8 104.528 
43.2678 103.271 104.953 43.1118 102.73 105.322 42.9657 102.151 105.583 
53.9653 101.787 98.02 54.5073 102.018 97.5669 54.9427 102.338 96.961 
55.2519 102.806 96.3636 55.1664 103.496 96.0743 54.6828 104.184 96.0379 
54.0602 104.645 96.0288 53.3955 104.933 95.9669 52.6338 105.156 95.8465 
54.0345 101.749 99.1106 54.6014 101.963 99.9394 55.1677 102.154 100.71 
55.8781 102.247 101.434 56.4459 102.452 102.286 56.3863 102.911 103.178 
55.9865 103.427 103.913 55.5137 103.872 104.425 54.9225 104.278 104.746 
53.0672 101.567 97.4679 52.773 101.367 96.5295 52.43 101.095 95.4882 
52.0989 100.763 94.4142 51.7877 100.411 93.3532 51.4766 100.106 92.24 
51.2709 99.8667 91.0649 51.0394 99.7617 90.1134 50.5336 99.8289 89.5686 
52.4802 105.514 96.4843 53.1458 105.844 97.2681 53.6991 106.067 98.1672 
54.1898 106.145 99.3524 54.6071 106.166 100.71 54.8531 106.089 101.99 
54.867 105.767 103.031 54.7194 105.352 103.831 54.4986 104.979 104.483 
51.7676 104.954 94.9813 51.5909 104.586 94.145 51.3674 104.185 93.1705 
51.0962 103.718 92.17 50.8082 103.128 91.2744 50.6508 102.509 90.4088 
50.647 101.893 89.5958 50.6066 101.232 89.0799 50.2855 100.57 89.0798 
38.9381 95.0551 100.847 38.077 95.2148 100.825 37.4022 95.634 100.684 
36.843 96.2207 100.449 36.4728 97.0215 100.186 36.3889 97.9811 99.874 
36.5903 98.8512 99.5003 36.9136 99.5566 99.1454 37.2446 100.199 98.8295 
39.658 95.4361 101.433 39.5595 95.8903 102.028 39.591 96.4157 102.656 
39.7096 97.055 103.322 40.0067 97.7885 103.931 40.4863 98.5634 104.467 
41.0297 99.3782 104.947 41.6056 100.195 105.325 42.2264 100.925 105.557 
39.5329 94.7252 100.268 39.2235 94.4002 99.5692 39.091 94.3629 98.7012 
39.236 94.58 97.7036 39.5992 94.9598 96.7843 40.1759 95.3299 95.9946 
40.751 95.6615 95.2279 41.2185 95.9478 94.4708 41.5683 96.254 93.8111 
37.6152 100.893 99.3908 37.761 101.015 100.34 38.0658 101.098 101.266 
38.4773 101.164 102.141 38.9483 101.266 103.014 39.5739 101.408 103.803 
40.3431 101.523 104.449 41.1617 101.561 104.968 42.0103 101.563 105.378 
37.4271 100.282 97.8977 37.345 99.7546 97.1892 37.3651 99.1983 96.4697 
37.5364 98.6275 95.7738 37.9206 98.0076 95.1251 38.538 97.4336 94.6248 
39.3244 97.0138 94.2533 40.2387 96.7941 93.9456 41.1315 96.6844 93.5899 
53.5255 104.472 105.397 52.6477 104.208 105.706 51.5139 103.856 105.932 
50.1941 103.649 106.185 48.7796 103.473 106.373 47.3063 103.129 106.395 
45.9707 102.695 106.336 44.77 102.305 106.226 43.7556 101.934 105.993 
49.0083 99.7083 89.4915 48.089 99.4238 89.6893 47.1018 99.0113 89.8924 
46.1229 98.4748 90.1477 45.1813 97.9298 90.4775 44.2197 97.4195 90.7765 
43.3101 96.9507 91.1267 42.7218 96.6938 91.711 42.3064 96.602 92.4769 
46.7246 97.7491 96.2252 47.2768 98.4288 96.506 46.717 98.3521 97.0364 
48.0969 98.9317 96.9186 47.4268 98.9134 97.4149 46.7355 98.9258 97.8928 
48.944 99.4994 97.3736 48.3072 99.422 97.9021 47.5257 99.4703 98.3749 
46.8368 99.4141 98.9078 49.7075 100.145 97.7788 49.1488 100.029 98.4042 
48.4557 99.9839 98.9237 47.8137 99.848 99.4897 47.2436 99.6113 100.039 
50.569 100.689 98.1703 50.0951 100.54 98.8808 49.5037 100.402 99.4677 
48.9952 100.126 100.042 48.5015 99.7583 100.554 47.9795 99.3985 100.944 
51.4478 101.158 98.5695 51.1769 100.889 99.3192 50.7369 100.637 99.9751 
50.2524 100.304 100.533 49.822 99.8552 100.998 49.3342 99.3879 101.311 
48.7824 98.9837 101.576 52.3029 101.432 98.8885 52.1289 101.185 99.6538 
51.911 100.805 100.326 51.4887 100.438 100.893 51.028 100.016 101.364 
50.5873 99.5013 101.676 50.0666 99.0239 101.927 49.4716 98.6436 102.215 
47.0968 97.1747 94.9697 47.4955 97.2262 94.3924 47.6437 97.9128 95.1361 
47.945 97.3949 93.701 48.1006 97.9957 94.4714 48.2778 98.6199 95.3577 
48.4722 97.6743 92.9374 48.5443 98.2185 93.6901 48.722 98.799 94.5901 
48.9941 99.3099 95.6433 49.0864 97.9422 92.1222 49.0349 98.5051 92.9114 
49.1955 99.0177 93.8053 49.4347 99.521 94.8722 49.7735 99.9278 95.9968 
49.8115 98.0903 91.3226 49.7426 98.6166 92.1488 49.7555 99.1818 93.0626 
49.9269 99.693 94.1138 50.2174 100.126 95.2753 50.5916 100.501 96.3987 
50.3421 98.4301 90.6075 50.5016 98.6946 91.4221 50.4672 99.2166 92.4156 
50.5197 99.7598 93.4289 50.7151 100.255 94.556 51.06 100.667 95.733 
51.4086 101.02 96.8303 50.5261 99.0785 90.0356 50.9255 99.0858 90.7201 
51.039 99.3771 91.7634 51.1381 99.8143 92.8539 51.3036 100.287 93.9141 
51.5651 100.733 95.0417 51.9164 101.089 96.1742 52.2302 101.364 97.1969 
50.9267 100.515 89.4762 51.0905 101.281 89.8122 51.2866 100.554 90.2914 
51.1935 102.014 90.5189 51.504 101.378 90.8338 51.5425 100.673 91.4604 
51.3749 102.713 91.3617 51.8341 102.143 91.5945 51.955 101.454 92.0553 
51.9561 100.816 92.7182 51.6404 103.375 92.2439 52.1719 102.878 92.4623 
52.4535 102.214 92.8049 52.5271 101.522 93.2838 52.4558 101.006 93.8665 
51.9258 103.922 93.2209 52.4877 103.556 93.3808 52.9489 102.984 93.6431 
53.1774 102.259 93.9426 53.207 101.605 94.3921 52.9432 101.219 94.9571 
52.2039 104.347 94.2292 52.8053 104.061 94.3383 53.402 103.64 94.4978 
53.8648 102.972 94.6509 54.0657 102.22 94.9106 53.9057 101.66 95.42 
53.4012 101.417 96.0161 52.4431 104.761 95.1168 53.1259 104.485 95.22 
53.7829 104.143 95.3035 54.4015 103.582 95.3423 54.794 102.836 95.4373 
54.7659 102.171 95.8371 54.3509 101.788 96.4687 53.7382 101.623 97.0249 
54.5224 102.093 98.8215 54.8101 102.556 98.3731 54.8557 102.528 99.6988 
55.2069 102.949 97.7175 55.1361 103.044 99.2362 55.4173 102.777 100.491 
55.4974 103.498 97.1523 55.5689 103.521 98.6233 55.6848 103.397 100.096 
56.113 102.962 101.3 55.2846 104.238 96.8887 55.6374 104.233 98.165 
55.8706 104.12 99.5975 56.0575 103.833 100.99 56.3626 103.365 102.222 
54.7398 104.832 96.7991 55.2483 104.953 97.8599 55.6683 104.954 99.2038 
55.9131 104.775 100.585 56.0473 104.398 101.936 56.1255 103.908 103.09 
[...]
POINT_DATA 1002
SCALARS _paraPhi double
LOOKUP_TABLE default
6.2831853072 3.1415926536 6.2831853072 3.1415926536 4.7123889804 4.7123889804 1.5707963268 1.5707963268 3.6951670125 
5.7296109483 2.5880182947 0.5535743589 6.2831853072 6.2831853072 6.2831853072 6.2831853072 3.1415926536 3.1415926536 
3.1415926536 3.1415926536 3.1415926536 6.1053039672 5.898798347 5.6768734901 5.4599499503 5.2659633393 5.1032165617 
4.9713148346 4.8656852733 4.7809517865 0.17788134 0.38438696014 0.60631181711 0.82323535693 1.0172219679 1.1799687454 
1.3118704726 1.4175000338 1.5022335207 6.1892828907 6.1070320098 6.035312792 5.9728339911 5.9183214791 5.8706119594 
5.8286879411 5.7916808611 5.7588591896 0.093902416448 0.17615329733 0.2478725152 0.31035131605 0.36486382811 0.41257334776 
0.45449736604 0.4915044461 0.52432611754 3.3194739936 3.5259796137 3.7479044707 3.9648280105 4.1588146215 4.321561399 
4.4534631262 4.5590926874 4.6438261743 2.9637113136 2.7572056934 2.5352808365 2.3183572967 2.1243706857 1.9616239082 
1.829722181 1.7240926197 1.6393591329 3.23549507 3.3177459509 3.3894651688 3.4519439696 3.5064564817 3.5541660013 
3.5960900196 3.6330970997 3.6659187711 3.0476902371 2.9654393563 2.8937201384 2.8312413375 2.7767288255 2.7290193058 
2.6870952876 2.6500882075 2.617266536 6.2831853072 6.2831853072 6.2831853072 6.2831853072 3.1415926536 3.1415926536 
3.1415926536 3.1415926536 3.1415926536 6.1053039672 5.898798347 5.6768734901 5.4599499503 5.2659633393 5.1032165617 
4.9713148346 4.8656852733 4.7809517865 0.17788134 0.38438696014 0.60631181711 0.82323535693 1.0172219679 1.1799687454 
1.3118704726 1.4175000338 1.5022335207 6.1892828907 6.1070320098 6.035312792 5.9728339911 5.9183214791 5.8706119594 
5.8286879411 5.7916808611 5.7588591896 0.093902416448 0.17615329733 0.2478725152 0.31035131605 0.36486382811 0.41257334776 
0.45449736604 0.4915044461 0.52432611754 3.3194739936 3.5259796137 3.7479044707 3.9648280105 4.1588146215 4.321561399 
4.4534631262 4.5590926874 4.6438261743 2.9637113136 2.7572056934 2.5352808365 2.3183572967 2.1243706857 1.9616239082 
1.829722181 1.7240926197 1.6393591329 3.23549507 3.3177459509 3.3894651688 3.4519439696 3.5064564817 3.5541660013 
3.5960900196 3.6330970997 3.6659187711 3.0476902371 2.9654393563 2.8937201384 2.8312413375 2.7767288255 2.7290193058 
2.6870952876 2.6500882075 2.617266536 4.7123889804 4.7123889804 4.7123889804 4.7123889804 4.7123889804 4.7123889804 
4.7123889804 4.7123889804 4.7123889804 4.6087898617 4.4991390697 4.3857031936 4.2712800401 4.1588146215 4.0509635631 
3.94975894 3.8564636551 3.7716124825 4.8159880991 4.9256388911 5.0390747672 5.1534979207 5.2659633393 5.3738143976 
5.4750190208 5.5683143056 5.6531654782 4.6087898617 4.4991390697 4.3857031936 4.2712800401 4.1588146215 4.0509635631 
3.94975894 3.8564636551 3.7716124825 4.8159880991 4.9256388911 5.0390747672 5.1534979207 5.2659633393 5.3738143976 
5.4750190208 5.5683143056 5.6531654782 1.5707963268 1.5707963268 1.5707963268 1.5707963268 1.5707963268 1.5707963268 
1.5707963268 1.5707963268 1.5707963268 1.6743954455 1.7840462375 1.8974821136 2.0119052671 2.1243706857 2.232221744 
2.3334263672 2.426721652 2.5115728246 1.4671972081 1.3575464161 1.24411054 1.1296873865 1.0172219679 0.90937090954 
0.80816628637 0.71487100155 0.63001982895 1.6743954455 1.7840462375 1.8974821136 2.0119052671 2.1243706857 2.232221744 
2.3334263672 2.426721652 2.5115728246 1.4671972081 1.3575464161 1.24411054 1.1296873865 1.0172219679 0.90937090954 
0.80816628637 0.71487100155 0.63001982895 3.6007720849 3.4966939854 3.3839471039 3.2645756454 3.1415926536 3.0186096618 
2.8992382033 2.7864913217 2.6824132222 5.8240058758 5.9280839753 6.0408308569 6.1602023154 6.2831853072 0.12298299178 
0.2423544503 0.35510133185 0.45917943135 6.0560271438 5.7885595667 5.9702140275 5.5125918794 5.6029703303 5.7885595667 
5.2659633393 5.2659633393 5.2659633393 5.2659633393 5.0674903122 5.0120975802 4.9155579264 4.7123889804 4.1588146215 
4.9155579264 4.8353719722 4.7123889804 4.5092200343 4.1588146215 3.6362183941 4.8004512023 4.7123889804 4.5894059886 
4.4126803806 4.1588146215 3.8218076305 3.4545639333 4.7123889804 4.6243267584 4.5092200343 4.3572876485 4.1588146215 
3.9121860814 3.6362183941 3.368750817 6.0174235957 5.9434319871 5.8263323547 5.8809213739 5.7674481418 5.6279784266 
5.8278025282 5.718968232 5.5891129425 5.4372443565 5.7823484065 5.678536687 5.5575666702 5.4192596322 5.2659633393 
5.743164462 5.6444075337 5.5314983644 5.4046708639 5.2659633393 5.1195510325 5.7091357773 5.6152775188 5.5096229709 
5.3926039573 5.2659633393 5.1329233157 4.9978930058 5.6793730533 5.5901633916 5.4910209005 5.3824597928 5.2659633393 
5.1440684722 5.0201624502 4.8979782167 5.5683143056 5.4750190208 5.4750190208 5.3738143976 5.3738143976 5.3738143976 
5.2659633393 5.2659633393 5.2659633393 5.2659633393 5.1534979207 5.1534979207 5.1534979207 5.1534979207 5.1534979207 
5.0390747672 5.0390747672 5.0390747672 5.0390747672 5.0390747672 5.0390747672 4.9256388911 4.9256388911 4.9256388911 
4.9256388911 4.9256388911 4.9256388911 4.9256388911 4.8159880991 4.8159880991 4.8159880991 4.8159880991 4.8159880991 
4.8159880991 4.8159880991 4.8159880991 4.6087898617 4.6087898617 4.4991390697 4.6087898617 4.4991390697 4.3857031936 
4.6087898617 4.4991390697 4.3857031936 4.2712800401 4.6087898617 4.4991390697 4.3857031936 4.2712800401 4.1588146215 
4.6087898617 4.4991390697 4.3857031936 4.2712800401 4.1588146215 4.0509635631 4.6087898617 4.4991390697 4.3857031936 
4.2712800401 4.1588146215 4.0509635631 3.94975894 4.6087898617 4.4991390697 4.3857031936 4.2712800401 4.1588146215 
4.0509635631 3.94975894 3.8564636551 4.526799744 4.4046155105 4.426884955 4.2807094886 4.2918546451 4.3052269283 
4.1588146215 4.1588146215 4.1588146215 4.1588146215 4.042318168 4.0321740035 4.0201070968 4.0055183285 3.9875336042 
3.9337570603 3.9151549899 3.8932795963 3.8672112905 3.8356650183 3.7967995342 3.8346145692 3.809500442 3.7803704271 
3.7462412737 3.7058097288 3.657329819 3.5984456061 3.7454049075 3.7156421835 3.6816134988 3.6424295543 3.5969754326 
3.5438565869 3.4813459737 3.4073543651 3.5642842451 3.4524645613 3.5233842518 3.3320300872 3.403123212 3.4773852225 
3.20576226 3.2746326772 3.348015857 3.4255060145 3.0774230472 3.1415926536 3.2112816139 3.2864685043 3.3668817272 
2.95115522 3.00855263 3.0719036933 3.1415926536 3.2178377658 3.3005964304 2.8307207459 2.8800620952 2.9351694502 
2.9967168029 3.0653475414 3.1415926536 3.225752376 2.718901062 2.7598010554 2.8058000847 2.8576792927 2.91630358 
2.9825888767 3.0574329311 3.1415926536 3.5642842451 3.5233842518 3.4524645613 3.4773852225 3.403123212 3.3320300872 
3.4255060145 3.348015857 3.2746326772 3.20576226 3.3668817272 3.2864685043 3.2112816139 3.1415926536 3.0774230472 
3.3005964304 3.2178377658 3.1415926536 3.0719036933 3.00855263 2.95115522 3.225752376 3.1415926536 3.0653475414 
2.9967168029 2.9351694502 2.8800620952 2.8307207459 3.1415926536 3.0574329311 2.9825888767 2.91630358 2.8576792927 
2.8058000847 2.7598010554 2.718901062 4.526799744 4.426884955 4.4046155105 4.3052269283 4.2918546451 4.2807094886 
4.1588146215 4.1588146215 4.1588146215 4.1588146215 3.9875336042 4.0055183285 4.0201070968 4.0321740035 4.042318168 
3.7967995342 3.8356650183 3.8672112905 3.8932795963 3.9151549899 3.9337570603 3.5984456061 3.657329819 3.7058097288 
3.7462412737 3.7803704271 3.809500442 3.8346145692 3.4073543651 3.4813459737 3.5438565869 3.5969754326 3.6424295543 
3.6816134988 3.7156421835 3.7454049075 4.7123889804 4.8004512023 4.6243267584 4.9155579264 4.7123889804 4.5092200343 
5.0674903122 4.8353719722 4.5894059886 4.3572876485 5.2659633393 5.0120975802 4.7123889804 4.4126803806 4.1588146215 
5.5125918794 5.2659633393 4.9155579264 4.5092200343 4.1588146215 3.9121860814 5.7885595667 5.6029703303 5.2659633393 
4.7123889804 4.1588146215 3.8218076305 3.6362183941 6.0560271438 5.9702140275 5.7885595667 5.2659633393 4.1588146215 
3.6362183941 3.4545639333 3.368750817 0.22715816343 0.49462574053 0.3129712797 0.77059342779 0.68021497688 0.49462574053 
1.0172219679 1.0172219679 1.0172219679 1.0172219679 1.2156949949 1.271087727 1.3676273807 1.5707963268 2.1243706857 
1.3676273807 1.447813335 1.5707963268 1.7739652728 2.1243706857 2.6469669131 1.4827341049 1.5707963268 1.6937793186 
1.8705049266 2.1243706857 2.4613776767 2.8286213739 1.5707963268 1.6588585487 1.7739652728 1.9258976586 2.1243706857 
2.3709992258 2.6469669131 2.9144344902 1.7563855631 1.8785697967 1.8563003522 2.0024758186 1.9913306621 1.9779583789 
2.1243706857 2.1243706857 2.1243706857 2.1243706857 2.2408671392 2.2510113037 2.2630782103 2.2776669786 2.295651703 
2.3494282469 2.3680303173 2.3899057108 2.4159740166 2.4475202889 2.486385773 2.448570738 2.4736848652 2.5028148801 
2.5369440334 2.5773755784 2.6258554882 2.6847397011 2.5377803997 2.5675431237 2.6015718084 2.6407557529 2.6862098746 
2.7393287203 2.8018393335 2.8758309421 1.6743954455 1.6743954455 1.7840462375 1.6743954455 1.7840462375 1.8974821136 
1.6743954455 1.7840462375 1.8974821136 2.0119052671 1.6743954455 1.7840462375 1.8974821136 2.0119052671 2.1243706857 
1.6743954455 1.7840462375 1.8974821136 2.0119052671 2.1243706857 2.232221744 1.6743954455 1.7840462375 1.8974821136 
2.0119052671 2.1243706857 2.232221744 2.3334263672 1.6743954455 1.7840462375 1.8974821136 2.0119052671 2.1243706857 
2.232221744 2.3334263672 2.426721652 1.4671972081 1.3575464161 1.4671972081 1.24411054 1.3575464161 1.4671972081 
1.1296873865 1.24411054 1.3575464161 1.4671972081 1.0172219679 1.1296873865 1.24411054 1.3575464161 1.4671972081 
0.90937090954 1.0172219679 1.1296873865 1.24411054 1.3575464161 1.4671972081 0.80816628637 0.90937090954 1.0172219679 
1.1296873865 1.24411054 1.3575464161 1.4671972081 0.71487100155 0.80816628637 0.90937090954 1.0172219679 1.1296873865 
1.24411054 1.3575464161 1.4671972081 0.60381225391 0.57404952988 0.69302191562 0.54002084522 0.66790778838 0.79216440667 
0.50083690068 0.63877777351 0.77356233629 0.90072551443 0.45538277901 0.60464862014 0.75168694275 0.89058134991 1.0172219679 
0.40226393329 0.56421707518 0.72561863695 0.87851444325 1.0172219679 1.139116835 0.33975332011 0.51573716537 0.69407236469 
0.86392567495 1.0172219679 1.1502619915 1.2630228569 0.26576171152 0.45685295248 0.6552068806 0.84594095064 1.0172219679 
1.1636342747 1.2852923014 1.3852070904 0.22715816343 0.3129712797 0.49462574053 0.49462574053 0.68021497688 0.77059342779 
1.0172219679 1.0172219679 1.0172219679 1.0172219679 2.1243706857 1.5707963268 1.3676273807 1.271087727 1.2156949949 
2.6469669131 2.1243706857 1.7739652728 1.5707963268 1.447813335 1.3676273807 2.8286213739 2.4613776767 2.1243706857 
1.8705049266 1.6937793186 1.5707963268 1.4827341049 2.9144344902 2.6469669131 2.3709992258 2.1243706857 1.9258976586 
1.7739652728 1.6588585487 1.5707963268 1.7563855631 1.8563003522 1.8785697967 1.9779583789 1.9913306621 2.0024758186 
2.1243706857 2.1243706857 2.1243706857 2.1243706857 2.295651703 2.2776669786 2.2630782103 2.2510113037 2.2408671392 
2.486385773 2.4475202889 2.4159740166 2.3899057108 2.3680303173 2.3494282469 2.6847397011 2.6258554882 2.5773755784 
2.5369440334 2.5028148801 2.4736848652 2.448570738 2.8758309421 2.8018393335 2.7393287203 2.6862098746 2.6407557529 
2.6015718084 2.5675431237 2.5377803997 5.8604937156 5.901393709 5.9723133995 5.9473927383 6.0216547488 6.0927478736 
5.9992719463 6.0767621038 6.1501452836 6.2190157008 6.0578962336 6.1383094565 6.2134963469 0 0.064169606361 
6.1241815303 6.206940195 6.2831853072 0.069688960264 0.13304002361 0.19043743361 6.1990255847 0 0.07624511221 
0.14487585072 0.20642320337 0.26153055843 0.3108719077 0 0.084159722458 0.15900377685 0.22528907359 0.28391336087 
0.3357925689 0.38179159818 0.42269159155 5.8604937156 5.9723133995 5.901393709 6.0927478736 6.0216547488 5.9473927383 
6.2190157008 6.1501452836 6.0767621038 5.9992719463 0.064169606361 0 6.2134963469 6.1383094565 6.0578962336 
0.19043743361 0.13304002361 0.069688960264 6.2831853072 6.206940195 6.1241815303 0.3108719077 0.26153055843 0.20642320337 
0.14487585072 0.07624511221 6.2831853072 6.1990255847 0.42269159155 0.38179159818 0.3357925689 0.28391336087 0.22528907359 
0.15900377685 0.084159722458 0 5.6793730533 5.7091357773 5.5901633916 5.743164462 5.6152775188 5.4910209005 
5.7823484065 5.6444075337 5.5096229709 5.3824597928 5.8278025282 5.678536687 5.5314983644 5.3926039573 5.2659633393 
5.8809213739 5.718968232 5.5575666702 5.4046708639 5.2659633393 5.1440684722 5.9434319871 5.7674481418 5.5891129425 
5.4192596322 5.2659633393 5.1329233157 5.0201624502 6.0174235957 5.8263323547 5.6279784266 5.4372443565 5.2659633393 
5.1195510325 4.9978930058 4.8979782167 1.3852070904 1.2852923014 1.2630228569 1.1636342747 1.1502619915 1.139116835 
1.0172219679 1.0172219679 1.0172219679 1.0172219679 0.84594095064 0.86392567495 0.87851444325 0.89058134991 0.90072551443 
0.6552068806 0.69407236469 0.72561863695 0.75168694275 0.77356233629 0.79216440667 0.45685295248 0.51573716537 0.56421707518 
0.60464862014 0.63877777351 0.66790778838 0.69302191562 0.26576171152 0.33975332011 0.40226393329 0.45538277901 0.50083690068 
0.54002084522 0.57404952988 0.60381225391 
