# vtk DataFile Version 4.1
vtk output
ASCII
DATASET POLYDATA
POINTS 1002 float
46.9813 95.3253 95.8821 49.8601 97.1835 105.33 44.9484 102.327 93.4247 
46.0707 105.857 103.05 52.8399 99.639 100.506 51.3597 104.381 97.8574 
42.2903 95.6828 101.202 40.945 101.212 99.7553 53.7624 102.943 106.868 
49.3956 98.8594 90.4108 44.8906 100.927 107.354 42.3533 96.1673 93.2042 
46.9965 95.7358 96.6845 46.9871 96.2001 97.5571 47.0751 96.5715 98.6188 
47.3647 96.8354 100.025 47.8971 96.8814 101.467 48.5886 96.5349 102.476 
49.0824 96.2601 103.186 49.3152 96.4756 103.971 49.5895 96.7859 104.724 
47.482 95.6662 96.0836 47.997 96.0906 96.3407 48.5578 96.5548 96.7171 
49.1335 97.0675 97.2635 49.7768 97.5498 97.9331 50.5041 97.9598 98.6542 
51.2287 98.3441 99.329 51.8547 98.791 99.8664 52.393 99.2362 100.236 
46.482 95.2678 96.2189 45.9893 95.2142 96.6796 45.5213 95.1438 97.2236 
44.9387 95.1897 97.7697 44.3071 95.2691 98.3485 43.8541 95.1016 99.0253 
43.4607 94.8299 99.7639 42.9482 94.8811 100.411 42.5088 95.2357 100.899 
47.2911 95.1708 95.2532 47.6942 95.0156 94.6539 48.2433 94.8503 93.9989 
48.8227 94.8331 93.2934 49.2173 95.151 92.6249 49.3533 95.8114 92.0284 
49.3606 96.6449 91.5015 49.3772 97.4412 91.0588 49.3991 98.1758 90.6983 
46.6608 94.91 95.3029 46.3902 94.3689 94.8001 46.1096 93.6253 94.4282 
45.5256 93.0926 94.0796 44.6718 93.1015 93.672 43.9039 93.607 93.3046 
43.3832 94.3254 93.1213 43.0248 95.0906 93.1459 42.6762 95.6919 93.2084 
50.5135 97.2658 105.216 51.2851 97.1881 105.044 52.1119 96.9308 104.723 
52.651 96.999 104.262 52.8346 97.5927 103.79 52.93 98.229 103.204 
53.0082 98.6489 102.477 53.0118 99.0117 101.762 52.9475 99.3482 101.112 
49.1427 96.6778 105.096 48.483 96.1093 104.863 47.8129 95.7012 104.626 
47.0007 95.6435 104.346 46.0495 95.8819 103.918 45.156 95.9803 103.401 
44.3225 95.8911 102.865 43.5127 95.8155 102.295 42.8553 95.7533 101.724 
50.5704 97.568 105.749 51.2773 97.9385 106.181 51.955 98.3062 106.662 
52.5963 98.76 107.066 53.1306 99.4006 107.325 53.5939 100.131 107.553 
53.9718 100.919 107.691 54.0842 101.736 107.574 53.9505 102.419 107.249 
49.6331 97.3593 105.72 49.2788 97.716 106.121 48.9096 98.079 106.507 
48.4796 98.3449 106.915 47.8582 98.585 107.396 47.2324 98.9415 107.667 
46.6364 99.477 107.666 45.9522 100.06 107.63 45.3255 100.542 107.579 
44.9477 102.76 94.1941 44.9215 103.25 95.0274 44.9156 103.788 95.9481 
44.9595 104.31 96.8922 45.0199 104.828 97.8413 45.0947 105.307 98.8455 
45.2615 105.562 99.931 45.4801 105.679 101.059 45.7434 105.8 102.133 
45.3308 102.696 93.4408 45.7828 103.07 93.5329 46.3477 103.454 93.7265 
47.0516 103.781 94.0979 47.8406 103.984 94.6795 48.6072 104.141 95.3616 
49.368 104.301 96.0309 50.1285 104.398 96.6692 50.7949 104.424 97.2734 
44.5749 102.22 93.9372 44.1226 102.136 94.4925 43.6308 102.061 95.1325 
43.1656 101.95 95.8531 42.6788 101.801 96.57 42.1885 101.653 97.2842 
41.807 101.504 98.0233 41.4901 101.37 98.6948 41.1982 101.28 99.2457 
45.1865 102.134 92.6423 45.483 101.937 91.7884 45.818 101.756 90.9314 
46.2158 101.591 90.0289 46.8507 101.388 89.2568 47.6129 101.032 88.9691 
48.2382 100.504 89.1624 48.7245 99.9221 89.5266 49.0803 99.3845 89.9833 
44.7157 101.81 92.9935 44.4322 101.282 92.5543 44.0824 100.775 92.1575 
43.6779 100.229 91.8691 43.2259 99.6337 91.7187 42.7664 98.9965 91.7242 
42.4372 98.1979 91.9089 42.3031 97.3554 92.2572 42.2988 96.6833 92.7215 
46.6352 105.921 102.603 47.3169 105.884 102.046 48.0339 105.828 101.434 
48.7396 105.865 100.809 49.4658 105.889 100.183 50.0692 105.718 99.6296 
50.4631 105.375 99.1751 50.8133 105.019 98.7204 51.1414 104.709 98.2506 
45.3463 105.714 102.897 44.6256 105.49 102.705 43.8766 105.189 102.482 
43.2062 104.77 102.207 42.6394 104.273 101.895 42.1496 103.714 101.568 
41.7565 103.112 101.186 41.4438 102.522 100.721 41.1693 101.909 100.211 
46.8332 105.848 103.624 47.7171 105.733 104.179 48.5806 105.56 104.69 
49.4293 105.317 105.17 50.3057 105.008 105.591 51.1852 104.688 105.956 
52.0094 104.293 106.257 52.7257 103.834 106.503 53.2961 103.398 106.72 
45.9749 105.705 103.714 45.8738 105.379 104.287 45.7255 104.97 104.868 
45.5436 104.56 105.479 45.3435 104.127 106.07 45.1882 103.583 106.542 
45.1319 102.881 106.814 45.1162 102.137 106.96 45.0215 101.481 107.161 
53.0444 100.031 100.246 53.2776 100.439 99.9212 53.4744 100.889 99.5169 
53.5238 101.463 99.1029 53.3941 102.155 98.783 53.0853 102.8 98.5721 
52.6527 103.283 98.3975 52.1783 103.669 98.2162 51.7573 104.055 98.0217 
53.3568 99.8586 101.16 53.9042 100.115 101.859 54.5293 100.342 102.457 
55.1446 100.528 102.992 55.434 100.94 103.825 55.3872 101.565 104.828 
55.1991 102.022 105.589 54.8397 102.325 106.143 54.3136 102.649 106.58 
52.4597 99.6288 99.6839 52.0803 99.5342 98.678 51.7311 99.3722 97.4986 
51.4436 99.1448 96.1718 51.159 98.9316 94.8379 50.8277 98.8236 93.6393 
50.5137 98.7607 92.5841 50.1797 98.712 91.6859 49.7961 98.749 90.9689 
51.7992 104.518 98.6953 52.2725 104.643 99.601 52.7902 104.742 100.516 
53.3512 104.804 101.499 53.7738 104.727 102.597 53.9462 104.457 103.683 
54.0385 104.08 104.668 54.0819 103.696 105.565 53.9562 103.307 106.311 
51.1611 104.01 97.1547 50.9029 103.514 96.4261 50.5848 102.965 95.6185 
50.2517 102.434 94.7288 50.0048 101.853 93.7798 49.8493 101.258 92.8033 
49.6621 100.746 91.9364 49.5555 100.152 91.2037 49.519 99.4819 90.6632 
41.877 95.979 101.046 41.4093 96.3522 100.891 40.9438 96.7514 100.754 
40.5771 97.2426 100.62 40.3445 97.9199 100.487 40.271 98.6844 100.372 
40.3469 99.3902 100.25 40.5104 100.038 100.077 40.7067 100.674 99.8856 
42.5382 96.2336 101.753 42.8159 96.8784 102.344 43.0143 97.4999 103.086 
43.0902 97.967 104.03 43.146 98.3627 105.001 43.2886 98.804 105.854 
43.5237 99.3062 106.578 43.8562 99.8752 107.078 44.3345 100.434 107.298 
41.8283 95.3446 100.543 41.3656 95.0637 99.8451 40.9139 94.9291 99.0334 
40.5845 94.8384 98.015 40.5549 94.8093 96.9353 40.8181 94.9008 95.9342 
41.1908 95.1075 95.0407 41.5985 95.3928 94.3363 42.0253 95.7681 93.7935 
40.8903 101.587 100.648 40.9284 101.799 101.81 40.8972 101.907 103.096 
40.8488 101.91 104.254 41.1464 101.771 105.09 41.8298 101.565 105.71 
42.558 101.41 106.255 43.3336 101.231 106.684 44.1482 101.036 107.037 
40.8281 100.564 99.0204 40.6182 99.978 98.2222 40.3677 99.4615 97.3755 
40.2175 98.9258 96.5829 40.3156 98.3707 95.9062 40.5838 97.8423 95.256 
40.8871 97.3039 94.584 41.3039 96.7952 93.9997 41.8185 96.4028 93.5476 
53.2877 102.895 107.286 52.6673 102.85 107.725 51.826 102.795 108.169 
50.7992 102.644 108.443 49.7118 102.345 108.443 48.5744 102.063 108.364 
47.4841 101.844 108.224 46.5409 101.56 107.929 45.6772 101.224 107.614 
48.8595 98.6369 90.2323 48.0825 98.4336 90.3084 47.2352 98.1366 90.4362 
46.3662 97.8129 90.584 45.4372 97.5082 90.8894 44.5273 97.0587 91.1165 
43.7004 96.5841 91.2762 43.0967 96.3187 91.7342 42.7068 96.2232 92.4669 
47.4811 96.1326 96.9324 48.04 96.5603 97.2928 47.5198 96.5761 97.9023 
48.7171 96.9627 97.8576 48.2728 96.8732 98.4556 47.8328 96.7934 99.1398 
49.4893 97.3368 98.5658 49.1801 97.1053 99.1853 48.807 96.9268 99.8123 
48.3383 96.8876 100.606 50.3283 97.6639 99.2728 50.1011 97.3581 99.8791 
49.7463 97.1551 100.488 49.3385 97.0183 101.184 48.9424 96.864 101.937 
51.1255 98.0243 99.9311 50.9996 97.6588 100.486 50.6739 97.4955 101.095 
50.2525 97.3952 101.76 49.8882 97.1712 102.421 49.4909 96.8082 102.905 
51.8226 98.4666 100.463 51.7885 98.0707 101.028 51.6377 97.8232 101.675 
51.3078 97.6865 102.372 50.9253 97.4557 102.976 50.4569 97.209 103.442 
49.8367 96.9297 103.743 52.4401 98.9239 100.841 52.4553 98.5473 101.456 
52.4172 98.1943 102.151 52.2763 97.859 102.89 52.0378 97.4378 103.49 
51.6184 97.1552 103.954 50.9103 97.1594 104.326 50.135 97.118 104.577 
47.8233 95.5502 95.4492 48.2284 95.4785 94.7965 48.3944 96.0024 95.6945 
48.7533 95.4198 94.0874 48.8058 96.004 95.0397 48.9684 96.5376 96.0765 
49.3169 95.4519 93.3638 49.2767 96.0415 94.3579 49.3911 96.5847 95.4553 
49.5221 97.1222 96.628 49.7424 95.7672 92.6592 49.7782 96.1516 93.6482 
49.8715 96.6451 94.8071 50.0048 97.1448 96.0174 50.1411 97.6552 97.3076 
49.9636 96.411 91.9946 50.1651 96.5434 92.9239 50.2944 96.8536 94.1023 
50.4998 97.2336 95.3693 50.6166 97.7126 96.6883 50.8295 98.1335 98.064 
50.0001 97.2295 91.4801 50.3587 97.2256 92.2863 50.5084 97.3777 93.4218 
50.7639 97.5921 94.6876 50.9916 97.9482 96.0436 51.1577 98.3558 97.4452 
51.4547 98.6479 98.7775 49.932 98.0096 91.1558 50.3483 97.9927 91.8764 
50.5703 98.079 92.8969 50.8199 98.1817 94.0823 51.1228 98.3986 95.4007 
51.3549 98.726 96.8077 51.6296 98.9946 98.1467 51.9861 99.1714 99.3204 
49.8606 99.444 91.4224 49.939 100.137 92.0893 50.2453 99.434 92.2904 
50.1438 100.727 92.88 50.4185 100.109 93.0276 50.6918 99.459 93.271 
50.3655 101.368 93.8138 50.6854 100.791 93.9027 50.9816 100.163 94.087 
51.1483 99.5247 94.3989 50.6672 102.037 94.7464 51.0687 101.527 94.806 
51.3758 100.905 94.9699 51.5313 100.242 95.2628 51.524 99.6354 95.6769 
51.0309 102.602 95.6294 51.5232 102.184 95.6567 51.8874 101.606 95.7914 
52.017 100.913 96.0915 51.9805 100.267 96.5191 51.8665 99.7746 97.011 
51.3216 103.129 96.4911 51.8257 102.748 96.5444 52.2683 102.256 96.6515 
52.4921 101.575 96.9025 52.5285 100.859 97.294 52.439 100.314 97.7637 
52.2625 99.9143 98.2435 51.5456 103.633 97.2887 51.9992 103.252 97.4263 
52.4617 102.837 97.5705 52.8185 102.247 97.7608 53.0106 101.513 98.0568 
53.032 100.867 98.4598 52.8853 100.402 98.9034 52.6619 100.01 99.3199 
53.6005 100.308 100.938 53.8587 100.783 100.575 54.2432 100.598 101.57 
53.9957 101.346 100.123 54.4857 101.162 101.126 54.9139 100.887 102.063 
53.964 102.023 99.7351 54.5064 101.858 100.711 55.0292 101.608 101.687 
55.3399 101.29 102.715 53.7268 102.716 99.4854 54.3291 102.6 100.444 
54.8513 102.41 101.462 55.1881 102.135 102.528 55.3188 101.863 103.684 
53.2731 103.299 99.3107 53.903 103.286 100.25 54.4616 103.173 101.277 
54.7992 102.893 102.361 54.9356 102.583 103.457 55.0989 102.329 104.571 
[...]
POINT_DATA 1002
SCALARS _paraPhi double
LOOKUP_TABLE default
6.2831853072 3.1415926536 6.2831853072 3.1415926536 4.7123889804 4.7123889804 1.5707963268 1.5707963268 3.6951670125 
5.7296109483 2.5880182947 0.5535743589 6.2831853072 6.2831853072 6.2831853072 6.2831853072 3.1415926536 3.1415926536 
3.1415926536 3.1415926536 3.1415926536 6.1053039672 5.898798347 5.6768734901 5.4599499503 5.2659633393 5.1032165617 
4.9713148346 4.8656852733 4.7809517865 0.17788134 0.38438696014 0.60631181711 0.82323535693 1.0172219679 1.1799687454 
1.3118704726 1.4175000338 1.5022335207 6.1892828907 6.1070320098 6.035312792 5.9728339911 5.9183214791 5.8706119594 
5.8286879411 5.7916808611 5.7588591896 0.093902416448 0.17615329733 0.2478725152 0.31035131605 0.36486382811 0.41257334776 
0.45449736604 0.4915044461 0.52432611754 3.3194739936 3.5259796137 3.7479044707 3.9648280105 4.1588146215 4.321561399 
4.4534631262 4.5590926874 4.6438261743 2.9637113136 2.7572056934 2.5352808365 2.3183572967 2.1243706857 1.9616239082 
1.829722181 1.7240926197 1.6393591329 3.23549507 3.3177459509 3.3894651688 3.4519439696 3.5064564817 3.5541660013 
3.5960900196 3.6330970997 3.6659187711 3.0476902371 2.9654393563 2.8937201384 2.8312413375 2.7767288255 2.7290193058 
2.6870952876 2.6500882075 2.617266536 6.2831853072 6.2831853072 6.2831853072 6.2831853072 3.1415926536 3.1415926536 
3.1415926536 3.1415926536 3.1415926536 6.1053039672 5.898798347 5.6768734901 5.4599499503 5.2659633393 5.1032165617 
4.9713148346 4.8656852733 4.7809517865 0.17788134 0.38438696014 0.60631181711 0.82323535693 1.0172219679 1.1799687454 
1.3118704726 1.4175000338 1.5022335207 6.1892828907 6.1070320098 6.035312792 5.9728339911 5.9183214791 5.8706119594 
5.8286879411 5.7916808611 5.7588591896 0.093902416448 0.17615329733 0.2478725152 0.31035131605 0.36486382811 0.41257334776 
0.45449736604 0.4915044461 0.52432611754 3.3194739936 3.5259796137 3.7479044707 3.9648280105 4.1588146215 4.321561399 
4.4534631262 4.5590926874 4.6438261743 2.9637113136 2.7572056934 2.5352808365 2.3183572967 2.1243706857 1.9616239082 
1.829722181 1.7240926197 1.6393591329 3.23549507 3.3177459509 3.3894651688 3.4519439696 3.5064564817 3.5541660013 
3.5960900196 3.6330970997 3.6659187711 3.0476902371 2.9654393563 2.8937201384 2.8312413375 2.7767288255 2.7290193058 
2.6870952876 2.6500882075 2.617266536 4.7123889804 4.7123889804 4.7123889804 4.7123889804 4.7123889804 4.7123889804 
4.7123889804 4.7123889804 4.7123889804 4.6087898617 4.4991390697 4.3857031936 4.2712800401 4.1588146215 4.0509635631 
3.94975894 3.8564636551 3.7716124825 4.8159880991 4.9256388911 5.0390747672 5.1534979207 5.2659633393 5.3738143976 
5.4750190208 5.5683143056 5.6531654782 4.6087898617 4.4991390697 4.3857031936 4.2712800401 4.1588146215 4.0509635631 
3.94975894 3.8564636551 3.7716124825 4.8159880991 4.9256388911 5.0390747672 5.1534979207 5.2659633393 5.3738143976 
5.4750190208 5.5683143056 5.6531654782 1.5707963268 1.5707963268 1.5707963268 1.5707963268 1.5707963268 1.5707963268 
1.5707963268 1.5707963268 1.5707963268 1.6743954455 1.7840462375 1.8974821136 2.0119052671 2.1243706857 2.232221744 
2.3334263672 2.426721652 2.5115728246 1.4671972081 1.3575464161 1.24411054 1.1296873865 1.0172219679 0.90937090954 
0.80816628637 0.71487100155 0.63001982895 1.6743954455 1.7840462375 1.8974821136 2.0119052671 2.1243706857 2.232221744 
2.3334263672 2.426721652 2.5115728246 1.4671972081 1.3575464161 1.24411054 1.1296873865 1.0172219679 0.90937090954 
0.80816628637 0.71487100155 0.63001982895 3.6007720849 3.4966939854 3.3839471039 3.2645756454 3.1415926536 3.0186096618 
2.8992382033 2.7864913217 2.6824132222 5.8240058758 5.9280839753 6.0408308569 6.1602023154 6.2831853072 0.12298299178 
0.2423544503 0.35510133185 0.45917943135 6.0560271438 5.7885595667 5.9702140275 5.5125918794 5.6029703303 5.7885595667 
5.2659633393 5.2659633393 5.2659633393 5.2659633393 5.0674903122 5.0120975802 4.9155579264 4.7123889804 4.1588146215 
4.9155579264 4.8353719722 4.7123889804 4.5092200343 4.1588146215 3.6362183941 4.8004512023 4.7123889804 4.5894059886 
4.4126803806 4.1588146215 3.8218076305 3.4545639333 4.7123889804 4.6243267584 4.5092200343 4.3572876485 4.1588146215 
3.9121860814 3.6362183941 3.368750817 6.0174235957 5.9434319871 5.8263323547 5.8809213739 5.7674481418 5.6279784266 
5.8278025282 5.718968232 5.5891129425 5.4372443565 5.7823484065 5.678536687 5.5575666702 5.4192596322 5.2659633393 
5.743164462 5.6444075337 5.5314983644 5.4046708639 5.2659633393 5.1195510325 5.7091357773 5.6152775188 5.5096229709 
5.3926039573 5.2659633393 5.1329233157 4.9978930058 5.6793730533 5.5901633916 5.4910209005 5.3824597928 5.2659633393 
5.1440684722 5.0201624502 4.8979782167 5.5683143056 5.4750190208 5.4750190208 5.3738143976 5.3738143976 5.3738143976 
5.2659633393 5.2659633393 5.2659633393 5.2659633393 5.1534979207 5.1534979207 5.1534979207 5.1534979207 5.1534979207 
5.0390747672 5.0390747672 5.0390747672 5.0390747672 5.0390747672 5.0390747672 4.9256388911 4.9256388911 4.9256388911 
4.9256388911 4.9256388911 4.9256388911 4.9256388911 4.8159880991 4.8159880991 4.8159880991 4.8159880991 4.8159880991 
4.8159880991 4.8159880991 4.8159880991 4.6087898617 4.6087898617 4.4991390697 4.6087898617 4.4991390697 4.3857031936 
4.6087898617 4.4991390697 4.3857031936 4.2712800401 4.6087898617 4.4991390697 4.3857031936 4.2712800401 4.1588146215 
4.6087898617 4.4991390697 4.3857031936 4.2712800401 4.1588146215 4.0509635631 4.6087898617 4.4991390697 4.3857031936 
4.2712800401 4.1588146215 4.0509635631 3.94975894 4.6087898617 4.4991390697 4.3857031936 4.2712800401 4.1588146215 
4.0509635631 3.94975894 3.8564636551 4.526799744 4.4046155105 4.426884955 4.2807094886 4.2918546451 4.3052269283 
4.1588146215 4.1588146215 4.1588146215 4.1588146215 4.042318168 4.0321740035 4.0201070968 4.0055183285 3.9875336042 
3.9337570603 3.9151549899 3.8932795963 3.8672112905 3.8356650183 3.7967995342 3.8346145692 3.809500442 3.7803704271 
3.7462412737 3.7058097288 3.657329819 3.5984456061 3.7454049075 3.7156421835 3.6816134988 3.6424295543 3.5969754326 
3.5438565869 3.4813459737 3.4073543651 3.5642842451 3.4524645613 3.5233842518 3.3320300872 3.403123212 3.4773852225 
3.20576226 3.2746326772 3.348015857 3.4255060145 3.0774230472 3.1415926536 3.2112816139 3.2864685043 3.3668817272 
2.95115522 3.00855263 3.0719036933 3.1415926536 3.2178377658 3.3005964304 2.8307207459 2.8800620952 2.9351694502 
2.9967168029 3.0653475414 3.1415926536 3.225752376 2.718901062 2.7598010554 2.8058000847 2.8576792927 2.91630358 
2.9825888767 3.0574329311 3.1415926536 3.5642842451 3.5233842518 3.4524645613 3.4773852225 3.403123212 3.3320300872 
3.4255060145 3.348015857 3.2746326772 3.20576226 3.3668817272 3.2864685043 3.2112816139 3.1415926536 3.0774230472 
3.3005964304 3.2178377658 3.1415926536 3.0719036933 3.00855263 2.95115522 3.225752376 3.1415926536 3.0653475414 
2.9967168029 2.9351694502 2.8800620952 2.8307207459 3.1415926536 3.0574329311 2.9825888767 2.91630358 2.8576792927 
2.8058000847 2.7598010554 2.718901062 4.526799744 4.426884955 4.4046155105 4.3052269283 4.2918546451 4.2807094886 
4.1588146215 4.1588146215 4.1588146215 4.1588146215 3.9875336042 4.0055183285 4.0201070968 4.0321740035 4.042318168 
3.7967995342 3.8356650183 3.8672112905 3.8932795963 3.9151549899 3.9337570603 3.5984456061 3.657329819 3.7058097288 
3.7462412737 3.7803704271 3.809500442 3.8346145692 3.4073543651 3.4813459737 3.5438565869 3.5969754326 3.6424295543 
3.6816134988 3.7156421835 3.7454049075 4.7123889804 4.8004512023 4.6243267584 4.9155579264 4.7123889804 4.5092200343 
5.0674903122 4.8353719722 4.5894059886 4.3572876485 5.2659633393 5.0120975802 4.7123889804 4.4126803806 4.1588146215 
5.5125918794 5.2659633393 4.9155579264 4.5092200343 4.1588146215 3.9121860814 5.7885595667 5.6029703303 5.2659633393 
4.7123889804 4.1588146215 3.8218076305 3.6362183941 6.0560271438 5.9702140275 5.7885595667 5.2659633393 4.1588146215 
3.6362183941 3.4545639333 3.368750817 0.22715816343 0.49462574053 0.3129712797 0.77059342779 0.68021497688 0.49462574053 
1.0172219679 1.0172219679 1.0172219679 1.0172219679 1.2156949949 1.271087727 1.3676273807 1.5707963268 2.1243706857 
1.3676273807 1.447813335 1.5707963268 1.7739652728 2.1243706857 2.6469669131 1.4827341049 1.5707963268 1.6937793186 
1.8705049266 2.1243706857 2.4613776767 2.8286213739 1.5707963268 1.6588585487 1.7739652728 1.9258976586 2.1243706857 
2.3709992258 2.6469669131 2.9144344902 1.7563855631 1.8785697967 1.8563003522 2.0024758186 1.9913306621 1.9779583789 
2.1243706857 2.1243706857 2.1243706857 2.1243706857 2.2408671392 2.2510113037 2.2630782103 2.2776669786 2.295651703 
2.3494282469 2.3680303173 2.3899057108 2.4159740166 2.4475202889 2.486385773 2.448570738 2.4736848652 2.5028148801 
2.5369440334 2.5773755784 2.6258554882 2.6847397011 2.5377803997 2.5675431237 2.6015718084 2.6407557529 2.6862098746 
2.7393287203 2.8018393335 2.8758309421 1.6743954455 1.6743954455 1.7840462375 1.6743954455 1.7840462375 1.8974821136 
1.6743954455 1.7840462375 1.8974821136 2.0119052671 1.6743954455 1.7840462375 1.8974821136 2.0119052671 2.1243706857 
1.6743954455 1.7840462375 1.8974821136 2.0119052671 2.1243706857 2.232221744 1.6743954455 1.7840462375 1.8974821136 
2.0119052671 2.1243706857 2.232221744 2.3334263672 1.6743954455 1.7840462375 1.8974821136 2.0119052671 2.1243706857 
2.232221744 2.3334263672 2.426721652 1.4671972081 1.3575464161 1.4671972081 1.24411054 1.3575464161 1.4671972081 
1.1296873865 1.24411054 1.3575464161 1.4671972081 1.0172219679 1.1296873865 1.24411054 1.3575464161 1.4671972081 
0.90937090954 1.0172219679 1.1296873865 1.24411054 1.3575464161 1.4671972081 0.80816628637 0.90937090954 1.0172219679 
1.1296873865 1.24411054 1.3575464161 1.4671972081 0.71487100155 0.80816628637 0.90937090954 1.0172219679 1.1296873865 
1.24411054 1.3575464161 1.4671972081 0.60381225391 0.57404952988 0.69302191562 0.54002084522 0.66790778838 0.79216440667 
0.50083690068 0.63877777351 0.77356233629 0.90072551443 0.45538277901 0.60464862014 0.75168694275 0.89058134991 1.0172219679 
0.40226393329 0.56421707518 0.72561863695 0.87851444325 1.0172219679 1.139116835 0.33975332011 0.51573716537 0.69407236469 
0.86392567495 1.0172219679 1.1502619915 1.2630228569 0.26576171152 0.45685295248 0.6552068806 0.84594095064 1.0172219679 
1.1636342747 1.2852923014 1.3852070904 0.22715816343 0.3129712797 0.49462574053 0.49462574053 0.68021497688 0.77059342779 
1.0172219679 1.0172219679 1.0172219679 1.0172219679 2.1243706857 1.5707963268 1.3676273807 1.271087727 1.2156949949 
2.6469669131 2.1243706857 1.7739652728 1.5707963268 1.447813335 1.3676273807 2.8286213739 2.4613776767 2.1243706857 
1.8705049266 1.6937793186 1.5707963268 1.4827341049 2.9144344902 2.6469669131 2.3709992258 2.1243706857 1.9258976586 
1.7739652728 1.6588585487 1.5707963268 1.7563855631 1.8563003522 1.8785697967 1.9779583789 1.9913306621 2.0024758186 
2.1243706857 2.1243706857 2.1243706857 2.1243706857 2.295651703 2.2776669786 2.2630782103 2.2510113037 2.2408671392 
2.486385773 2.4475202889 2.4159740166 2.3899057108 2.3680303173 2.3494282469 2.6847397011 2.6258554882 2.5773755784 
2.5369440334 2.5028148801 2.4736848652 2.448570738 2.8758309421 2.8018393335 2.7393287203 2.6862098746 2.6407557529 
2.6015718084 2.5675431237 2.5377803997 5.8604937156 5.901393709 5.9723133995 5.9473927383 6.0216547488 6.0927478736 
5.9992719463 6.0767621038 6.1501452836 6.2190157008 6.0578962336 6.1383094565 6.2134963469 0 0.064169606361 
6.1241815303 6.206940195 6.2831853072 0.069688960264 0.13304002361 0.19043743361 6.1990255847 0 0.07624511221 
0.14487585072 0.20642320337 0.26153055843 0.3108719077 0 0.084159722458 0.15900377685 0.22528907359 0.28391336087 
0.3357925689 0.38179159818 0.42269159155 5.8604937156 5.9723133995 5.901393709 6.0927478736 6.0216547488 5.9473927383 
6.2190157008 6.1501452836 6.0767621038 5.9992719463 0.064169606361 0 6.2134963469 6.1383094565 6.0578962336 
0.19043743361 0.13304002361 0.069688960264 6.2831853072 6.206940195 6.1241815303 0.3108719077 0.26153055843 0.20642320337 
0.14487585072 0.07624511221 6.2831853072 6.1990255847 0.42269159155 0.38179159818 0.3357925689 0.28391336087 0.22528907359 
0.15900377685 0.084159722458 0 5.6793730533 5.7091357773 5.5901633916 5.743164462 5.6152775188 5.4910209005 
5.7823484065 5.6444075337 5.5096229709 5.3824597928 5.8278025282 5.678536687 5.5314983644 5.3926039573 5.2659633393 
5.8809213739 5.718968232 5.5575666702 5.4046708639 5.2659633393 5.1440684722 5.9434319871 5.7674481418 5.5891129425 
5.4192596322 5.2659633393 5.1329233157 5.0201624502 6.0174235957 5.8263323547 5.6279784266 5.4372443565 5.2659633393 
5.1195510325 4.9978930058 4.8979782167 1.3852070904 1.2852923014 1.2630228569 1.1636342747 1.1502619915 1.139116835 
1.0172219679 1.0172219679 1.0172219679 1.0172219679 0.84594095064 0.86392567495 0.87851444325 0.89058134991 0.90072551443 
0.6552068806 0.69407236469 0.72561863695 0.75168694275 0.77356233629 0.79216440667 0.45685295248 0.51573716537 0.56421707518 
0.60464862014 0.63877777351 0.66790778838 0.69302191562 0.26576171152 0.33975332011 0.40226393329 0.45538277901 0.50083690068 
0.54002084522 0.57404952988 0.60381225391 
