# vtk DataFile Version 4.1
vtk output
ASCII
DATASET POLYDATA
POINTS 1002 float
46.593 96.3736 95.2439 48.7462 98.2961 103.807 44.0088 102.381 93.0428 
45.3093 104.409 101.923 52.4019 101.156 99.8872 50.7307 105.124 97.509 
40.2506 95.1293 101.223 38.7202 100.026 99.4681 53.7128 103.649 105.372 
49.072 99.8592 89.5936 43.3245 100.021 105.961 42.6913 96.4404 93.036 
46.4734 96.9058 95.9278 46.4189 97.4121 96.7701 46.4335 97.82 97.7518 
46.4584 98.187 98.8255 46.5262 98.5584 99.9109 46.7061 98.8163 100.97 
47.1452 98.7871 101.891 47.7458 98.581 102.615 48.3412 98.3649 103.213 
46.9096 96.8587 95.4001 47.3097 97.359 95.664 47.7305 97.939 96.0258 
48.1738 98.5557 96.5309 48.621 99.2505 97.1405 49.1992 99.8553 97.7922 
49.8942 100.324 98.4845 50.7441 100.644 99.1446 51.6068 100.928 99.6252 
46.2592 96.1942 95.5965 45.9287 96.0571 96.0824 45.4335 96.0794 96.6179 
44.7563 96.1703 97.2076 44.01 96.2647 97.8942 43.2214 96.2335 98.6506 
42.3886 95.9897 99.4713 41.5808 95.6045 100.257 40.9111 95.2908 100.844 
46.9185 96.1598 94.7313 47.3015 95.9799 94.211 47.6899 95.9312 93.5947 
48.1385 96.069 92.9071 48.5903 96.4487 92.216 48.8415 97.018 91.5276 
48.9954 97.6565 90.8644 49.1398 98.3602 90.317 49.1516 99.1401 89.9046 
46.5119 95.6936 94.8108 46.4492 94.7899 94.417 46.3319 93.7102 94.0906 
45.9615 93.2201 93.7804 45.3352 93.6382 93.4083 44.6294 94.2874 92.9882 
43.9096 94.8668 92.7066 43.3097 95.3686 92.6667 42.9194 95.9169 92.8278 
49.2978 98.5147 103.524 49.836 98.7817 103.208 50.4168 99.1167 102.887 
51.0795 99.4404 102.53 51.6921 99.7327 102.115 52.1307 100.038 101.625 
52.4144 100.298 101.122 52.5755 100.538 100.647 52.5268 100.876 100.274 
47.9689 98.085 103.668 47.0301 97.9499 103.501 46.0048 97.8344 103.241 
44.9927 97.663 102.881 44.0629 97.3627 102.504 43.2467 96.9076 102.113 
42.4647 96.362 101.824 41.6215 95.9119 101.605 40.8657 95.5152 101.423 
49.366 98.5184 104.259 49.9529 98.9185 104.722 50.6146 99.3771 105.115 
51.3339 99.8567 105.421 52.0178 100.406 105.613 52.6577 101.003 105.729 
53.2278 101.668 105.807 53.6127 102.416 105.768 53.7608 103.123 105.596 
48.567 98.1607 104.344 48.2655 98.1223 104.963 47.8906 98.1208 105.61 
47.3521 98.1493 106.188 46.5625 98.2204 106.554 45.5873 98.4961 106.7 
44.7736 98.9305 106.669 44.2024 99.3442 106.513 43.743 99.7089 106.251 
44.0174 102.632 93.8474 44.0186 102.939 94.6945 44.0459 103.309 95.6221 
44.1045 103.647 96.6138 44.1807 103.944 97.6133 44.2668 104.255 98.6022 
44.415 104.474 99.6134 44.6917 104.494 100.534 44.9938 104.462 101.295 
44.4677 102.634 93.0939 44.9647 102.925 93.2255 45.5243 103.239 93.5098 
46.167 103.544 93.9177 46.8539 103.848 94.4228 47.5819 104.156 95.049 
48.3982 104.435 95.7365 49.2469 104.706 96.3678 50.028 104.954 96.9442 
43.5729 102.263 93.5616 43.1153 102.106 94.1917 42.6077 101.925 94.9055 
42.0582 101.716 95.6642 41.4832 101.478 96.4318 40.8912 101.207 97.1871 
40.3133 100.897 97.8439 39.743 100.573 98.4066 39.1786 100.28 98.9285 
44.3039 102.248 92.2599 44.6749 102.06 91.4365 45.063 101.904 90.5654 
45.4769 101.801 89.7121 46.0292 101.696 88.9448 46.8909 101.461 88.5995 
47.699 101.131 88.7064 48.283 100.765 88.8988 48.7314 100.323 89.1745 
43.7264 102.042 92.5694 43.4394 101.617 92.1492 43.19 101.12 91.8574 
42.9558 100.574 91.6688 42.7638 99.8724 91.6311 42.6578 99.048 91.8052 
42.5965 98.2634 92.1006 42.5838 97.5593 92.4319 42.6277 96.9437 92.7546 
45.8373 104.676 101.644 46.4218 104.939 101.3 46.939 105.247 100.911 
47.4086 105.531 100.408 48.0598 105.592 99.8383 48.7536 105.562 99.2065 
49.3818 105.53 98.6615 49.8971 105.501 98.1637 50.3739 105.32 97.8127 
44.6335 104.134 101.791 43.9269 103.794 101.645 43.1376 103.419 101.443 
42.3079 103.029 101.166 41.5288 102.586 100.886 40.835 102.051 100.633 
40.1794 101.489 100.355 39.6326 100.956 100.021 39.1353 100.481 99.7169 
45.9789 104.461 102.342 46.7584 104.451 102.749 47.5928 104.451 103.171 
48.4675 104.483 103.663 49.4042 104.474 104.144 50.3773 104.452 104.556 
51.3375 104.369 104.885 52.2654 104.219 105.155 53.0715 103.96 105.299 
45.203 104.111 102.406 45.0876 103.725 102.872 44.9223 103.292 103.344 
44.7035 102.854 103.846 44.4079 102.439 104.356 44.1322 101.98 104.828 
43.874 101.476 105.237 43.6409 100.977 105.553 43.4832 100.492 105.78 
52.7597 101.44 99.7172 53.0736 101.751 99.4733 53.2739 102.161 99.178 
53.24 102.715 98.9323 52.9719 103.321 98.7328 52.6978 103.944 98.4569 
52.4059 104.502 98.1369 51.9519 104.865 97.8806 51.3526 105.046 97.6816 
53.2974 101.207 100.303 54.3061 101.201 100.604 55.1256 101.317 101.004 
55.5773 101.664 101.638 55.7397 102.097 102.513 55.7043 102.449 103.443 
55.4331 102.819 104.177 55.0119 103.154 104.717 54.4366 103.44 105.108 
51.8354 101.209 99.23 51.2879 101.165 98.389 50.7376 101.054 97.3485 
50.3395 100.789 95.9935 50.155 100.422 94.5311 49.9297 100.149 93.3068 
49.6766 99.9894 92.1729 49.5425 99.8717 91.0247 49.4417 99.8091 90.0566 
51.2802 105.363 98.2672 51.9708 105.514 99.1692 52.7242 105.538 100.174 
53.3365 105.382 101.219 53.8008 105.182 102.203 54.1171 104.951 103.08 
54.2303 104.658 103.801 54.2042 104.332 104.426 54.0057 103.994 104.939 
50.6039 104.811 96.8425 50.4009 104.428 96.0455 50.1133 103.935 95.1805 
49.8196 103.375 94.2439 49.5756 102.8 93.1935 49.325 102.178 92.172 
49.1652 101.582 91.2094 49.145 101.038 90.3214 49.2124 100.463 89.6703 
39.4051 94.8916 101.221 38.4977 94.7974 101.148 37.7104 95.0212 100.989 
37.2587 95.6223 100.782 37.1311 96.4755 100.563 37.1955 97.408 100.309 
37.439 98.289 100.035 37.7878 99.0176 99.8156 38.2407 99.5732 99.636 
39.9551 95.3376 101.645 39.7927 95.6213 102.104 39.824 95.9914 102.653 
40.0953 96.5141 103.234 40.5961 97.1692 103.84 41.1711 97.7924 104.49 
41.6674 98.3361 105.097 42.1507 98.9149 105.57 42.6925 99.5083 105.872 
40.106 94.8549 100.688 40.0022 94.7143 100.07 39.9622 94.8504 99.3965 
40.2199 95.2524 98.6435 40.8418 95.6383 97.6893 41.5257 95.8345 96.5968 
41.9813 95.9122 95.5136 42.2871 96.0348 94.5846 42.5257 96.2048 93.7566 
38.652 99.9895 100.186 38.7506 99.8722 100.909 39.0277 99.7474 101.574 
39.4193 99.7521 102.308 39.9021 99.8305 103.106 40.5719 99.8708 103.759 
41.3373 99.9054 104.382 41.985 99.9661 105.049 42.591 100.014 105.61 
38.6556 99.7068 98.8803 38.8112 99.341 98.3788 39.099 98.9669 97.8587 
39.5169 98.515 97.2651 40.1118 98.0758 96.665 40.8327 97.775 96.0858 
41.4473 97.4689 95.3365 41.9449 97.1248 94.5045 42.3701 96.7852 93.7294 
52.9499 103.463 105.636 52.0437 103.18 105.833 50.9531 102.817 106.048 
49.687 102.426 106.326 48.3614 102.017 106.571 47.0876 101.605 106.711 
46.0166 101.167 106.647 45.1139 100.704 106.399 44.2123 100.331 106.169 
48.5213 99.5293 89.5965 47.7822 99.2095 89.7835 47.0181 98.8572 89.9504 
46.2243 98.469 90.1959 45.4221 98.0148 90.5714 44.6686 97.4764 90.8128 
43.9086 96.9485 91.0529 43.2918 96.583 91.5324 42.9148 96.4291 92.242 
46.8321 97.3874 96.1416 47.2866 97.8675 96.5247 46.8472 97.8571 97.1069 
47.7913 98.3767 97.039 47.3438 98.3289 97.6079 46.908 98.2675 98.2113 
48.3283 98.9812 97.6266 47.9199 98.8344 98.192 47.4319 98.7778 98.7788 
46.9725 98.688 99.3679 48.9362 99.5999 98.2492 48.6343 99.3273 98.8041 
48.1551 99.208 99.3877 47.5658 99.189 99.9532 47.1382 99.0288 100.504 
49.6997 100.1 98.9382 49.4586 99.8224 99.4772 49.0786 99.5916 100.057 
48.5024 99.4917 100.58 47.9663 99.3552 101.077 47.5278 99.1051 101.53 
50.5929 100.44 99.604 50.3863 100.214 100.107 50.0787 99.9875 100.665 
49.6447 99.7608 101.15 49.0576 99.5661 101.602 48.5729 99.2289 101.947 
48.1591 98.8713 102.281 51.586 100.666 100.031 51.4555 100.431 100.508 
51.1965 100.238 101.017 50.8795 99.96 101.489 50.3824 99.6626 101.927 
49.7919 99.3282 102.292 49.2832 98.9237 102.59 48.826 98.5975 102.897 
47.2932 96.6791 94.896 47.664 96.5955 94.3237 47.6959 97.3098 95.1118 
47.9811 96.6985 93.6339 47.999 97.3873 94.4625 48.0672 98.0355 95.4256 
48.403 96.9583 92.9581 48.2647 97.5907 93.7752 48.351 98.2159 94.7919 
48.4763 98.7783 95.9798 48.8428 97.3214 92.2514 48.6293 97.8619 93.1638 
48.6159 98.4306 94.1494 48.8021 98.9819 95.4063 48.9703 99.479 96.6895 
49.179 97.7509 91.5511 49.0535 98.1693 92.5573 48.9582 98.6965 93.5841 
49.1068 99.2146 94.7806 49.3099 99.6716 96.1837 49.5385 100.069 97.4313 
49.3949 98.3269 90.9088 49.3824 98.5746 91.9577 49.3372 99.0082 93.0856 
49.4311 99.4715 94.2081 49.614 99.8894 95.5884 49.8589 100.251 97.0102 
50.2519 100.527 98.1772 49.4871 99.0755 90.4202 49.5354 99.1835 91.4246 
49.5792 99.4315 92.6056 49.7315 99.7597 93.7212 49.9028 100.135 94.9977 
50.1518 100.49 96.4982 50.5447 100.762 97.7927 51.0513 100.92 98.8121 
49.4047 100.487 90.5604 49.4483 101.112 91.3212 49.6314 100.57 91.6496 
49.6081 101.743 92.2597 49.8489 101.239 92.4538 49.972 100.667 92.83 
49.8637 102.421 93.2785 50.1243 101.923 93.4183 50.3206 101.352 93.6828 
50.3193 100.819 94.0906 50.1928 103.074 94.3256 50.457 102.607 94.4702 
50.655 102.035 94.7211 50.6703 101.533 95.1355 50.5275 101.135 95.5897 
50.5953 103.708 95.2665 50.9283 103.279 95.4378 51.1361 102.693 95.7131 
51.1844 102.16 96.1442 51.0366 101.781 96.6426 50.8771 101.429 97.0522 
50.9454 104.274 96.1396 51.3653 103.915 96.3268 51.6196 103.364 96.6139 
51.7813 102.776 96.9839 51.7917 102.277 97.4043 51.6635 101.86 97.799 
51.5128 101.491 98.1317 51.1849 104.707 96.9716 51.6878 104.441 97.1656 
52.0129 103.973 97.4507 52.2386 103.389 97.776 52.4653 102.794 98.0665 
52.5344 102.23 98.359 52.4029 101.783 98.6827 52.1649 101.473 98.9947 
53.6986 101.569 100.134 54.0037 102.007 99.8955 54.6944 101.697 100.442 
54.0802 102.571 99.6636 54.8928 102.351 100.25 55.4758 101.97 100.856 
53.8585 103.197 99.5076 54.7746 103.062 100.148 55.555 102.818 100.754 
55.9325 102.419 101.588 53.5288 103.866 99.2977 54.4221 103.731 100.061 
55.2664 103.598 100.752 55.9491 103.343 101.55 56.0627 102.894 102.565 
53.2066 104.569 98.9545 54.0209 104.463 99.8015 54.7462 104.217 100.685 
55.5135 104.05 101.533 55.9436 103.787 102.53 55.8336 103.3 103.476 
[...]
POINT_DATA 1002
SCALARS _paraPhi double
LOOKUP_TABLE default
6.2831853072 3.1415926536 6.2831853072 3.1415926536 4.7123889804 4.7123889804 1.5707963268 1.5707963268 3.6951670125 
5.7296109483 2.5880182947 0.5535743589 6.2831853072 6.2831853072 6.2831853072 6.2831853072 3.1415926536 3.1415926536 
3.1415926536 3.1415926536 3.1415926536 6.1053039672 5.898798347 5.6768734901 5.4599499503 5.2659633393 5.1032165617 
4.9713148346 4.8656852733 4.7809517865 0.17788134 0.38438696014 0.60631181711 0.82323535693 1.0172219679 1.1799687454 
1.3118704726 1.4175000338 1.5022335207 6.1892828907 6.1070320098 6.035312792 5.9728339911 5.9183214791 5.8706119594 
5.8286879411 5.7916808611 5.7588591896 0.093902416448 0.17615329733 0.2478725152 0.31035131605 0.36486382811 0.41257334776 
0.45449736604 0.4915044461 0.52432611754 3.3194739936 3.5259796137 3.7479044707 3.9648280105 4.1588146215 4.321561399 
4.4534631262 4.5590926874 4.6438261743 2.9637113136 2.7572056934 2.5352808365 2.3183572967 2.1243706857 1.9616239082 
1.829722181 1.7240926197 1.6393591329 3.23549507 3.3177459509 3.3894651688 3.4519439696 3.5064564817 3.5541660013 
3.5960900196 3.6330970997 3.6659187711 3.0476902371 2.9654393563 2.8937201384 2.8312413375 2.7767288255 2.7290193058 
2.6870952876 2.6500882075 2.617266536 6.2831853072 6.2831853072 6.2831853072 6.2831853072 3.1415926536 3.1415926536 
3.1415926536 3.1415926536 3.1415926536 6.1053039672 5.898798347 5.6768734901 5.4599499503 5.2659633393 5.1032165617 
4.9713148346 4.8656852733 4.7809517865 0.17788134 0.38438696014 0.60631181711 0.82323535693 1.0172219679 1.1799687454 
1.3118704726 1.4175000338 1.5022335207 6.1892828907 6.1070320098 6.035312792 5.9728339911 5.9183214791 5.8706119594 
5.8286879411 5.7916808611 5.7588591896 0.093902416448 0.17615329733 0.2478725152 0.31035131605 0.36486382811 0.41257334776 
0.45449736604 0.4915044461 0.52432611754 3.3194739936 3.5259796137 3.7479044707 3.9648280105 4.1588146215 4.321561399 
4.4534631262 4.5590926874 4.6438261743 2.9637113136 2.7572056934 2.5352808365 2.3183572967 2.1243706857 1.9616239082 
1.829722181 1.7240926197 1.6393591329 3.23549507 3.3177459509 3.3894651688 3.4519439696 3.5064564817 3.5541660013 
3.5960900196 3.6330970997 3.6659187711 3.0476902371 2.9654393563 2.8937201384 2.8312413375 2.7767288255 2.7290193058 
2.6870952876 2.6500882075 2.617266536 4.7123889804 4.7123889804 4.7123889804 4.7123889804 4.7123889804 4.7123889804 
4.7123889804 4.7123889804 4.7123889804 4.6087898617 4.4991390697 4.3857031936 4.2712800401 4.1588146215 4.0509635631 
3.94975894 3.8564636551 3.7716124825 4.8159880991 4.9256388911 5.0390747672 5.1534979207 5.2659633393 5.3738143976 
5.4750190208 5.5683143056 5.6531654782 4.6087898617 4.4991390697 4.3857031936 4.2712800401 4.1588146215 4.0509635631 
3.94975894 3.8564636551 3.7716124825 4.8159880991 4.9256388911 5.0390747672 5.1534979207 5.2659633393 5.3738143976 
5.4750190208 5.5683143056 5.6531654782 1.5707963268 1.5707963268 1.5707963268 1.5707963268 1.5707963268 1.5707963268 
1.5707963268 1.5707963268 1.5707963268 1.6743954455 1.7840462375 1.8974821136 2.0119052671 2.1243706857 2.232221744 
2.3334263672 2.426721652 2.5115728246 1.4671972081 1.3575464161 1.24411054 1.1296873865 1.0172219679 0.90937090954 
0.80816628637 0.71487100155 0.63001982895 1.6743954455 1.7840462375 1.8974821136 2.0119052671 2.1243706857 2.232221744 
2.3334263672 2.426721652 2.5115728246 1.4671972081 1.3575464161 1.24411054 1.1296873865 1.0172219679 0.90937090954 
0.80816628637 0.71487100155 0.63001982895 3.6007720849 3.4966939854 3.3839471039 3.2645756454 3.1415926536 3.0186096618 
2.8992382033 2.7864913217 2.6824132222 5.8240058758 5.9280839753 6.0408308569 6.1602023154 6.2831853072 0.12298299178 
0.2423544503 0.35510133185 0.45917943135 6.0560271438 5.7885595667 5.9702140275 5.5125918794 5.6029703303 5.7885595667 
5.2659633393 5.2659633393 5.2659633393 5.2659633393 5.0674903122 5.0120975802 4.9155579264 4.7123889804 4.1588146215 
4.9155579264 4.8353719722 4.7123889804 4.5092200343 4.1588146215 3.6362183941 4.8004512023 4.7123889804 4.5894059886 
4.4126803806 4.1588146215 3.8218076305 3.4545639333 4.7123889804 4.6243267584 4.5092200343 4.3572876485 4.1588146215 
3.9121860814 3.6362183941 3.368750817 6.0174235957 5.9434319871 5.8263323547 5.8809213739 5.7674481418 5.6279784266 
5.8278025282 5.718968232 5.5891129425 5.4372443565 5.7823484065 5.678536687 5.5575666702 5.4192596322 5.2659633393 
5.743164462 5.6444075337 5.5314983644 5.4046708639 5.2659633393 5.1195510325 5.7091357773 5.6152775188 5.5096229709 
5.3926039573 5.2659633393 5.1329233157 4.9978930058 5.6793730533 5.5901633916 5.4910209005 5.3824597928 5.2659633393 
5.1440684722 5.0201624502 4.8979782167 5.5683143056 5.4750190208 5.4750190208 5.3738143976 5.3738143976 5.3738143976 
5.2659633393 5.2659633393 5.2659633393 5.2659633393 5.1534979207 5.1534979207 5.1534979207 5.1534979207 5.1534979207 
5.0390747672 5.0390747672 5.0390747672 5.0390747672 5.0390747672 5.0390747672 4.9256388911 4.9256388911 4.9256388911 
4.9256388911 4.9256388911 4.9256388911 4.9256388911 4.8159880991 4.8159880991 4.8159880991 4.8159880991 4.8159880991 
4.8159880991 4.8159880991 4.8159880991 4.6087898617 4.6087898617 4.4991390697 4.6087898617 4.4991390697 4.3857031936 
4.6087898617 4.4991390697 4.3857031936 4.2712800401 4.6087898617 4.4991390697 4.3857031936 4.2712800401 4.1588146215 
4.6087898617 4.4991390697 4.3857031936 4.2712800401 4.1588146215 4.0509635631 4.6087898617 4.4991390697 4.3857031936 
4.2712800401 4.1588146215 4.0509635631 3.94975894 4.6087898617 4.4991390697 4.3857031936 4.2712800401 4.1588146215 
4.0509635631 3.94975894 3.8564636551 4.526799744 4.4046155105 4.426884955 4.2807094886 4.2918546451 4.3052269283 
4.1588146215 4.1588146215 4.1588146215 4.1588146215 4.042318168 4.0321740035 4.0201070968 4.0055183285 3.9875336042 
3.9337570603 3.9151549899 3.8932795963 3.8672112905 3.8356650183 3.7967995342 3.8346145692 3.809500442 3.7803704271 
3.7462412737 3.7058097288 3.657329819 3.5984456061 3.7454049075 3.7156421835 3.6816134988 3.6424295543 3.5969754326 
3.5438565869 3.4813459737 3.4073543651 3.5642842451 3.4524645613 3.5233842518 3.3320300872 3.403123212 3.4773852225 
3.20576226 3.2746326772 3.348015857 3.4255060145 3.0774230472 3.1415926536 3.2112816139 3.2864685043 3.3668817272 
2.95115522 3.00855263 3.0719036933 3.1415926536 3.2178377658 3.3005964304 2.8307207459 2.8800620952 2.9351694502 
2.9967168029 3.0653475414 3.1415926536 3.225752376 2.718901062 2.7598010554 2.8058000847 2.8576792927 2.91630358 
2.9825888767 3.0574329311 3.1415926536 3.5642842451 3.5233842518 3.4524645613 3.4773852225 3.403123212 3.3320300872 
3.4255060145 3.348015857 3.2746326772 3.20576226 3.3668817272 3.2864685043 3.2112816139 3.1415926536 3.0774230472 
3.3005964304 3.2178377658 3.1415926536 3.0719036933 3.00855263 2.95115522 3.225752376 3.1415926536 3.0653475414 
2.9967168029 2.9351694502 2.8800620952 2.8307207459 3.1415926536 3.0574329311 2.9825888767 2.91630358 2.8576792927 
2.8058000847 2.7598010554 2.718901062 4.526799744 4.426884955 4.4046155105 4.3052269283 4.2918546451 4.2807094886 
4.1588146215 4.1588146215 4.1588146215 4.1588146215 3.9875336042 4.0055183285 4.0201070968 4.0321740035 4.042318168 
3.7967995342 3.8356650183 3.8672112905 3.8932795963 3.9151549899 3.9337570603 3.5984456061 3.657329819 3.7058097288 
3.7462412737 3.7803704271 3.809500442 3.8346145692 3.4073543651 3.4813459737 3.5438565869 3.5969754326 3.6424295543 
3.6816134988 3.7156421835 3.7454049075 4.7123889804 4.8004512023 4.6243267584 4.9155579264 4.7123889804 4.5092200343 
5.0674903122 4.8353719722 4.5894059886 4.3572876485 5.2659633393 5.0120975802 4.7123889804 4.4126803806 4.1588146215 
5.5125918794 5.2659633393 4.9155579264 4.5092200343 4.1588146215 3.9121860814 5.7885595667 5.6029703303 5.2659633393 
4.7123889804 4.1588146215 3.8218076305 3.6362183941 6.0560271438 5.9702140275 5.7885595667 5.2659633393 4.1588146215 
3.6362183941 3.4545639333 3.368750817 0.22715816343 0.49462574053 0.3129712797 0.77059342779 0.68021497688 0.49462574053 
1.0172219679 1.0172219679 1.0172219679 1.0172219679 1.2156949949 1.271087727 1.3676273807 1.5707963268 2.1243706857 
1.3676273807 1.447813335 1.5707963268 1.7739652728 2.1243706857 2.6469669131 1.4827341049 1.5707963268 1.6937793186 
1.8705049266 2.1243706857 2.4613776767 2.8286213739 1.5707963268 1.6588585487 1.7739652728 1.9258976586 2.1243706857 
2.3709992258 2.6469669131 2.9144344902 1.7563855631 1.8785697967 1.8563003522 2.0024758186 1.9913306621 1.9779583789 
2.1243706857 2.1243706857 2.1243706857 2.1243706857 2.2408671392 2.2510113037 2.2630782103 2.2776669786 2.295651703 
2.3494282469 2.3680303173 2.3899057108 2.4159740166 2.4475202889 2.486385773 2.448570738 2.4736848652 2.5028148801 
2.5369440334 2.5773755784 2.6258554882 2.6847397011 2.5377803997 2.5675431237 2.6015718084 2.6407557529 2.6862098746 
2.7393287203 2.8018393335 2.8758309421 1.6743954455 1.6743954455 1.7840462375 1.6743954455 1.7840462375 1.8974821136 
1.6743954455 1.7840462375 1.8974821136 2.0119052671 1.6743954455 1.7840462375 1.8974821136 2.0119052671 2.1243706857 
1.6743954455 1.7840462375 1.8974821136 2.0119052671 2.1243706857 2.232221744 1.6743954455 1.7840462375 1.8974821136 
2.0119052671 2.1243706857 2.232221744 2.3334263672 1.6743954455 1.7840462375 1.8974821136 2.0119052671 2.1243706857 
2.232221744 2.3334263672 2.426721652 1.4671972081 1.3575464161 1.4671972081 1.24411054 1.3575464161 1.4671972081 
1.1296873865 1.24411054 1.3575464161 1.4671972081 1.0172219679 1.1296873865 1.24411054 1.3575464161 1.4671972081 
0.90937090954 1.0172219679 1.1296873865 1.24411054 1.3575464161 1.4671972081 0.80816628637 0.90937090954 1.0172219679 
1.1296873865 1.24411054 1.3575464161 1.4671972081 0.71487100155 0.80816628637 0.90937090954 1.0172219679 1.1296873865 
1.24411054 1.3575464161 1.4671972081 0.60381225391 0.57404952988 0.69302191562 0.54002084522 0.66790778838 0.79216440667 
0.50083690068 0.63877777351 0.77356233629 0.90072551443 0.45538277901 0.60464862014 0.75168694275 0.89058134991 1.0172219679 
0.40226393329 0.56421707518 0.72561863695 0.87851444325 1.0172219679 1.139116835 0.33975332011 0.51573716537 0.69407236469 
0.86392567495 1.0172219679 1.1502619915 1.2630228569 0.26576171152 0.45685295248 0.6552068806 0.84594095064 1.0172219679 
1.1636342747 1.2852923014 1.3852070904 0.22715816343 0.3129712797 0.49462574053 0.49462574053 0.68021497688 0.77059342779 
1.0172219679 1.0172219679 1.0172219679 1.0172219679 2.1243706857 1.5707963268 1.3676273807 1.271087727 1.2156949949 
2.6469669131 2.1243706857 1.7739652728 1.5707963268 1.447813335 1.3676273807 2.8286213739 2.4613776767 2.1243706857 
1.8705049266 1.6937793186 1.5707963268 1.4827341049 2.9144344902 2.6469669131 2.3709992258 2.1243706857 1.9258976586 
1.7739652728 1.6588585487 1.5707963268 1.7563855631 1.8563003522 1.8785697967 1.9779583789 1.9913306621 2.0024758186 
2.1243706857 2.1243706857 2.1243706857 2.1243706857 2.295651703 2.2776669786 2.2630782103 2.2510113037 2.2408671392 
2.486385773 2.4475202889 2.4159740166 2.3899057108 2.3680303173 2.3494282469 2.6847397011 2.6258554882 2.5773755784 
2.5369440334 2.5028148801 2.4736848652 2.448570738 2.8758309421 2.8018393335 2.7393287203 2.6862098746 2.6407557529 
2.6015718084 2.5675431237 2.5377803997 5.8604937156 5.901393709 5.9723133995 5.9473927383 6.0216547488 6.0927478736 
5.9992719463 6.0767621038 6.1501452836 6.2190157008 6.0578962336 6.1383094565 6.2134963469 0 0.064169606361 
6.1241815303 6.206940195 6.2831853072 0.069688960264 0.13304002361 0.19043743361 6.1990255847 0 0.07624511221 
0.14487585072 0.20642320337 0.26153055843 0.3108719077 0 0.084159722458 0.15900377685 0.22528907359 0.28391336087 
0.3357925689 0.38179159818 0.42269159155 5.8604937156 5.9723133995 5.901393709 6.0927478736 6.0216547488 5.9473927383 
6.2190157008 6.1501452836 6.0767621038 5.9992719463 0.064169606361 0 6.2134963469 6.1383094565 6.0578962336 
0.19043743361 0.13304002361 0.069688960264 6.2831853072 6.206940195 6.1241815303 0.3108719077 0.26153055843 0.20642320337 
0.14487585072 0.07624511221 6.2831853072 6.1990255847 0.42269159155 0.38179159818 0.3357925689 0.28391336087 0.22528907359 
0.15900377685 0.084159722458 0 5.6793730533 5.7091357773 5.5901633916 5.743164462 5.6152775188 5.4910209005 
5.7823484065 5.6444075337 5.5096229709 5.3824597928 5.8278025282 5.678536687 5.5314983644 5.3926039573 5.2659633393 
5.8809213739 5.718968232 5.5575666702 5.4046708639 5.2659633393 5.1440684722 5.9434319871 5.7674481418 5.5891129425 
5.4192596322 5.2659633393 5.1329233157 5.0201624502 6.0174235957 5.8263323547 5.6279784266 5.4372443565 5.2659633393 
5.1195510325 4.9978930058 4.8979782167 1.3852070904 1.2852923014 1.2630228569 1.1636342747 1.1502619915 1.139116835 
1.0172219679 1.0172219679 1.0172219679 1.0172219679 0.84594095064 0.86392567495 0.87851444325 0.89058134991 0.90072551443 
0.6552068806 0.69407236469 0.72561863695 0.75168694275 0.77356233629 0.79216440667 0.45685295248 0.51573716537 0.56421707518 
0.60464862014 0.63877777351 0.66790778838 0.69302191562 0.26576171152 0.33975332011 0.40226393329 0.45538277901 0.50083690068 
0.54002084522 0.57404952988 0.60381225391 
