# vtk DataFile Version 4.1
vtk output
ASCII
DATASET POLYDATA
POINTS 1002 float
47.0325 97.0547 95.5303 48.9063 99.1441 104.151 44.7385 101.848 93.5014 
44.8001 105.028 101.632 50.6385 102.164 100.032 49.8149 105.137 96.7434 
42.1125 96.7591 101.618 40.4028 100.776 99.7564 52.2707 103.903 104.661 
48.7123 99.8391 89.6114 43.9208 101.279 105.907 43.7654 96.4697 92.6401 
46.8477 97.6693 96.2349 46.7564 98.2241 97.0909 46.7431 98.684 98.1128 
46.7226 99.0776 99.2704 46.8374 99.2857 100.456 47.2124 99.2414 101.455 
47.713 99.0957 102.172 48.1963 99.0168 102.803 48.617 99.0431 103.496 
47.1887 97.5969 95.7777 47.403 98.1958 96.1139 47.6099 98.8553 96.5242 
47.8512 99.5434 97.0183 48.1805 100.201 97.5818 48.5538 100.778 98.1886 
49.014 101.235 98.8006 49.5753 101.596 99.3412 50.1356 101.9 99.7546 
46.774 96.9455 95.7861 46.4992 96.8771 96.1987 46.1491 96.8909 96.7339 
45.6754 97.0276 97.285 45.1293 97.2004 97.9449 44.5675 97.291 98.7838 
44.0078 97.2309 99.6629 43.3805 97.0701 100.47 42.6909 96.8848 101.126 
47.3067 96.7572 94.9969 47.559 96.4975 94.4283 47.8101 96.3671 93.8755 
48.1446 96.3719 93.4004 48.3599 96.6694 92.8169 48.3502 97.3135 92.0675 
48.3519 98.0279 91.3062 48.4914 98.6338 90.6201 48.6532 99.2177 90.041 
47.0788 96.3197 95.0094 47.0581 95.5506 94.5311 46.873 94.7674 94.1263 
46.5014 94.0714 93.807 45.9541 93.8169 93.4896 45.3705 94.136 93.1211 
44.8679 94.7075 92.788 44.4195 95.3134 92.5735 44.0409 95.9108 92.5281 
49.4066 99.2996 103.77 49.8946 99.471 103.376 50.3079 99.7176 103.004 
50.5763 100.095 102.635 50.7312 100.549 102.295 50.8295 100.983 101.949 
50.8298 101.382 101.512 50.7444 101.738 101.03 50.6679 102.005 100.552 
48.2414 98.8924 104.103 47.5839 98.578 104.005 46.9608 98.2152 103.871 
46.2433 97.9031 103.658 45.4452 97.617 103.364 44.776 97.2892 103.085 
44.1268 97.0852 102.763 43.3493 97.0256 102.327 42.618 96.924 101.908 
49.4569 99.3936 104.477 50.0352 99.6977 104.729 50.6774 100.042 104.975 
51.3371 100.422 105.208 51.8747 100.902 105.322 52.2969 101.549 105.384 
52.5606 102.322 105.407 52.5706 103.025 105.248 52.4331 103.533 104.958 
48.6876 99.1499 104.715 48.3771 99.1892 105.212 47.9799 99.299 105.675 
47.4893 99.4604 106.153 46.8409 99.5914 106.501 45.9985 99.8035 106.614 
45.2161 100.207 106.578 44.696 100.659 106.427 44.3113 101.015 106.178 
44.6696 102.181 94.2198 44.576 102.563 94.9952 44.4833 103.003 95.8028 
44.4144 103.445 96.6542 44.387 103.857 97.5285 44.3693 104.277 98.343 
44.3781 104.649 99.1025 44.4833 104.855 99.9287 44.6425 104.949 100.833 
45.0521 102.118 93.5333 45.3734 102.458 93.6043 45.7307 102.862 93.7359 
46.1643 103.215 93.9967 46.6781 103.544 94.3858 47.2096 103.96 94.8108 
47.7573 104.352 95.2856 48.3927 104.638 95.826 49.1076 104.894 96.331 
44.3516 101.794 93.9404 43.9062 101.737 94.4594 43.4527 101.674 95.0624 
42.9901 101.594 95.7395 42.5167 101.477 96.4823 42.0706 101.339 97.2447 
41.6217 101.215 97.9667 41.1565 101.093 98.6235 40.7415 100.941 99.2144 
44.9777 101.697 92.7665 45.2241 101.566 91.9344 45.546 101.442 91.0824 
45.8959 101.325 90.3029 46.2226 101.275 89.5331 46.7581 101.193 88.8864 
47.472 100.952 88.6925 48.0486 100.616 88.9003 48.4282 100.234 89.2425 
44.5572 101.491 93.0558 44.3465 101.086 92.6367 44.1134 100.649 92.2811 
43.8765 100.181 92.0107 43.6758 99.6097 91.8565 43.5216 98.9071 91.8143 
43.471 98.1385 91.9081 43.5403 97.4459 92.1428 43.6511 96.9074 92.4078 
45.1846 105.246 101.256 45.5797 105.456 100.775 46.104 105.556 100.217 
46.7614 105.552 99.6613 47.3979 105.571 99.1011 47.9875 105.574 98.4964 
48.5112 105.519 97.9188 48.9738 105.427 97.4338 49.4258 105.305 97.047 
44.2623 104.782 101.492 43.6996 104.506 101.311 43.1698 104.131 101.15 
42.6325 103.67 101.014 42.0928 103.198 100.887 41.6328 102.713 100.71 
41.2449 102.204 100.438 40.9069 101.695 100.158 40.6283 101.21 99.9438 
45.2674 105.2 102.107 45.8646 105.295 102.534 46.611 105.281 102.971 
47.4603 105.211 103.39 48.4186 105.065 103.698 49.4377 104.887 103.976 
50.3681 104.748 104.265 51.1422 104.535 104.476 51.7675 104.212 104.585 
44.648 104.914 102.259 44.5241 104.7 102.844 44.4431 104.364 103.389 
44.3476 103.971 103.877 44.2464 103.539 104.347 44.185 103.045 104.767 
44.1265 102.549 105.117 44.0447 102.099 105.445 43.9701 101.684 105.731 
50.9206 102.407 99.7792 51.1809 102.689 99.4376 51.3875 103.005 99.0399 
51.5609 103.316 98.5343 51.6555 103.68 97.993 51.5736 104.137 97.5838 
51.3025 104.602 97.2845 50.8962 104.951 97.0274 50.393 105.116 96.8466 
51.1716 102.328 100.559 51.8026 102.461 101.045 52.4929 102.535 101.492 
53.0966 102.624 101.937 53.5586 102.803 102.479 53.8136 103.074 103.116 
53.7408 103.373 103.722 53.3502 103.629 104.186 52.8188 103.795 104.469 
50.3181 102.099 99.2415 49.9875 101.95 98.2271 49.7169 101.659 97.0954 
49.5886 101.197 95.9361 49.4804 100.675 94.7271 49.2096 100.286 93.5454 
48.9524 100.051 92.3789 48.895 99.9088 91.2062 48.892 99.8417 90.2173 
50.2763 105.413 97.3627 50.7515 105.544 98.177 51.2588 105.566 99.1729 
51.7922 105.587 100.238 52.2216 105.545 101.343 52.4509 105.341 102.318 
52.524 104.978 103.048 52.4998 104.565 103.647 52.4113 104.202 104.202 
49.6706 104.769 96.208 49.4228 104.308 95.5963 49.1627 103.8 94.8489 
48.9691 103.253 93.924 48.8105 102.632 92.9297 48.6577 102.002 91.959 
48.6034 101.467 90.9612 48.6915 100.984 90.114 48.7791 100.439 89.6743 
41.5798 96.6969 101.668 41.0245 96.8704 101.634 40.4015 97.2352 101.523 
39.8737 97.6378 101.352 39.5607 98.095 101.079 39.4325 98.7533 100.704 
39.4856 99.471 100.385 39.7209 100.02 100.171 40.061 100.416 99.9714 
41.9014 96.8456 102.236 41.7686 97.0726 102.944 41.7177 97.4072 103.615 
41.7977 97.8685 104.096 41.9832 98.3929 104.559 42.205 98.885 105.118 
42.5162 99.4546 105.544 42.9669 100.128 105.731 43.4592 100.765 105.829 
42.0758 96.7448 101.039 42.1306 96.9002 100.216 42.3032 97.0566 99.0762 
42.6076 96.9996 97.8684 42.897 96.7831 96.7107 43.1186 96.5226 95.6263 
43.3446 96.3269 94.6851 43.554 96.2825 93.8889 43.6905 96.3578 93.208 
40.2162 100.874 100.438 40.0771 100.99 101.206 40.1115 101.078 102.055 
40.3891 101.101 102.877 40.8128 101.089 103.593 41.3517 101.078 104.218 
41.9701 101.088 104.774 42.5977 101.138 105.236 43.2469 101.213 105.602 
40.4346 100.471 99.1928 40.5688 100.149 98.538 40.823 99.7506 97.7907 
41.1893 99.2556 96.9782 41.6167 98.7354 96.1392 42.0664 98.2439 95.2795 
42.5595 97.8068 94.4538 43.0474 97.3929 93.7458 43.4566 96.9459 93.1624 
51.7566 103.803 105.018 51.0702 103.735 105.385 50.2282 103.627 105.716 
49.3199 103.364 105.976 48.3286 103.014 106.183 47.223 102.688 106.327 
46.1994 102.336 106.36 45.3799 101.943 106.275 44.6409 101.587 106.109 
48.2691 99.4546 89.6169 47.6885 99.0164 89.8734 47.1315 98.5337 90.2023 
46.5739 98.0359 90.5269 45.9909 97.5652 90.8638 45.4126 97.1134 91.1182 
44.8239 96.669 91.2494 44.3121 96.3574 91.4985 43.9804 96.3113 92.0106 
47.0748 98.1946 96.5675 47.3296 98.7881 96.9858 47.0316 98.7293 97.4985 
47.5813 99.4321 97.4966 47.2851 99.3341 98.0063 47.0149 99.2072 98.6248 
47.9063 100.073 98.0979 47.6059 99.9337 98.6415 47.3144 99.7735 99.2441 
47.0735 99.5512 99.8827 48.2896 100.675 98.7256 48.0537 100.488 99.3213 
47.8058 100.26 99.9292 47.5778 99.9796 100.517 47.3911 99.6213 101.023 
48.7738 101.15 99.3251 48.5956 100.962 99.9162 48.453 100.678 100.529 
48.2917 100.336 101.06 48.1051 99.9366 101.495 47.9159 99.4924 101.838 
49.4263 101.47 99.8488 49.3072 101.266 100.384 49.2103 100.985 100.971 
49.101 100.623 101.458 48.9466 100.207 101.839 48.7262 99.7694 102.162 
48.4802 99.3447 102.451 50.0992 101.737 100.261 50.0912 101.483 100.745 
50.0669 101.173 101.281 49.9727 100.816 101.747 49.8391 100.39 102.098 
49.6437 99.9573 102.433 49.3603 99.5769 102.759 49.0157 99.2667 103.101 
47.4585 97.3842 95.2226 47.669 97.256 94.6081 47.6379 98.0904 95.5342 
47.9337 97.2291 94.0894 47.8433 98.0679 94.9268 47.8206 98.8592 95.956 
48.2438 97.3369 93.6219 48.1321 98.1094 94.4351 48.0572 98.908 95.4 
48.0892 99.6234 96.4898 48.3457 97.7514 92.9631 48.3706 98.3036 93.8962 
48.342 98.9914 94.8891 48.3591 99.6992 95.9739 48.4692 100.292 97.0832 
48.355 98.332 92.1756 48.4548 98.6939 93.1967 48.5816 99.1767 94.2863 
48.6285 99.8008 95.4257 48.7397 100.377 96.5444 48.87 100.863 97.6946 
48.532 98.8182 91.4178 48.5791 99.0745 92.4734 48.7728 99.4138 93.6239 
48.9181 99.9244 94.8174 48.9777 100.499 95.9589 49.1161 100.98 97.0926 
49.3093 101.362 98.2972 48.7781 99.2805 90.7437 48.78 99.4318 91.7915 
48.9082 99.6693 92.9756 49.155 100.048 94.1773 49.2675 100.586 95.3684 
49.3286 101.117 96.4972 49.522 101.515 97.6694 49.8111 101.774 98.8326 
48.8735 100.47 90.5262 48.8106 101.063 91.2034 48.9124 100.555 91.7066 
48.895 101.652 92.0864 49.0528 101.216 92.4339 49.1317 100.699 92.9169 
49.0901 102.318 93.0078 49.3234 101.91 93.2643 49.4451 101.396 93.595 
49.5122 100.927 94.0777 49.3003 102.994 93.9762 49.5876 102.632 94.1645 
49.7715 102.145 94.4315 49.8452 101.652 94.8019 49.7945 101.339 95.3737 
49.5437 103.59 94.928 49.8943 103.278 95.076 50.1227 102.86 95.3263 
50.2108 102.402 95.6673 50.169 102.044 96.173 49.9746 101.832 96.7 
49.8538 104.153 95.6954 50.2686 103.858 95.8467 50.5782 103.46 96.0874 
50.6946 103.036 96.4292 50.6428 102.67 96.9162 50.4744 102.402 97.4581 
50.2327 102.174 97.8802 50.1662 104.688 96.3118 50.6163 104.442 96.4752 
50.9892 104.037 96.714 51.1942 103.581 97.0313 51.1847 103.179 97.4908 
51.0296 102.872 98.0539 50.8174 102.605 98.5364 50.5767 102.338 98.9178 
51.4839 102.626 100.286 51.7362 102.985 99.9441 52.1215 102.811 100.746 
51.9134 103.372 99.5437 52.3269 103.25 100.406 52.7595 102.965 101.179 
52.051 103.753 99.0018 52.4771 103.705 99.9671 52.9377 103.501 100.819 
53.3286 103.197 101.648 52.07 104.209 98.4556 52.5686 104.187 99.3699 
53.0493 104.069 100.334 53.476 103.866 101.298 53.7305 103.531 102.22 
51.8841 104.719 98.0746 52.4699 104.752 98.8732 52.9968 104.691 99.7988 
53.3983 104.544 100.93 53.6965 104.258 101.96 53.7805 103.827 102.875 
[...]
POINT_DATA 1002
SCALARS _paraPhi double
LOOKUP_TABLE default
6.2831853072 3.1415926536 6.2831853072 3.1415926536 4.7123889804 4.7123889804 1.5707963268 1.5707963268 3.6951670125 
5.7296109483 2.5880182947 0.5535743589 6.2831853072 6.2831853072 6.2831853072 6.2831853072 3.1415926536 3.1415926536 
3.1415926536 3.1415926536 3.1415926536 6.1053039672 5.898798347 5.6768734901 5.4599499503 5.2659633393 5.1032165617 
4.9713148346 4.8656852733 4.7809517865 0.17788134 0.38438696014 0.60631181711 0.82323535693 1.0172219679 1.1799687454 
1.3118704726 1.4175000338 1.5022335207 6.1892828907 6.1070320098 6.035312792 5.9728339911 5.9183214791 5.8706119594 
5.8286879411 5.7916808611 5.7588591896 0.093902416448 0.17615329733 0.2478725152 0.31035131605 0.36486382811 0.41257334776 
0.45449736604 0.4915044461 0.52432611754 3.3194739936 3.5259796137 3.7479044707 3.9648280105 4.1588146215 4.321561399 
4.4534631262 4.5590926874 4.6438261743 2.9637113136 2.7572056934 2.5352808365 2.3183572967 2.1243706857 1.9616239082 
1.829722181 1.7240926197 1.6393591329 3.23549507 3.3177459509 3.3894651688 3.4519439696 3.5064564817 3.5541660013 
3.5960900196 3.6330970997 3.6659187711 3.0476902371 2.9654393563 2.8937201384 2.8312413375 2.7767288255 2.7290193058 
2.6870952876 2.6500882075 2.617266536 6.2831853072 6.2831853072 6.2831853072 6.2831853072 3.1415926536 3.1415926536 
3.1415926536 3.1415926536 3.1415926536 6.1053039672 5.898798347 5.6768734901 5.4599499503 5.2659633393 5.1032165617 
4.9713148346 4.8656852733 4.7809517865 0.17788134 0.38438696014 0.60631181711 0.82323535693 1.0172219679 1.1799687454 
1.3118704726 1.4175000338 1.5022335207 6.1892828907 6.1070320098 6.035312792 5.9728339911 5.9183214791 5.8706119594 
5.8286879411 5.7916808611 5.7588591896 0.093902416448 0.17615329733 0.2478725152 0.31035131605 0.36486382811 0.41257334776 
0.45449736604 0.4915044461 0.52432611754 3.3194739936 3.5259796137 3.7479044707 3.9648280105 4.1588146215 4.321561399 
4.4534631262 4.5590926874 4.6438261743 2.9637113136 2.7572056934 2.5352808365 2.3183572967 2.1243706857 1.9616239082 
1.829722181 1.7240926197 1.6393591329 3.23549507 3.3177459509 3.3894651688 3.4519439696 3.5064564817 3.5541660013 
3.5960900196 3.6330970997 3.6659187711 3.0476902371 2.9654393563 2.8937201384 2.8312413375 2.7767288255 2.7290193058 
2.6870952876 2.6500882075 2.617266536 4.7123889804 4.7123889804 4.7123889804 4.7123889804 4.7123889804 4.7123889804 
4.7123889804 4.7123889804 4.7123889804 4.6087898617 4.4991390697 4.3857031936 4.2712800401 4.1588146215 4.0509635631 
3.94975894 3.8564636551 3.7716124825 4.8159880991 4.9256388911 5.0390747672 5.1534979207 5.2659633393 5.3738143976 
5.4750190208 5.5683143056 5.6531654782 4.6087898617 4.4991390697 4.3857031936 4.2712800401 4.1588146215 4.0509635631 
3.94975894 3.8564636551 3.7716124825 4.8159880991 4.9256388911 5.0390747672 5.1534979207 5.2659633393 5.3738143976 
5.4750190208 5.5683143056 5.6531654782 1.5707963268 1.5707963268 1.5707963268 1.5707963268 1.5707963268 1.5707963268 
1.5707963268 1.5707963268 1.5707963268 1.6743954455 1.7840462375 1.8974821136 2.0119052671 2.1243706857 2.232221744 
2.3334263672 2.426721652 2.5115728246 1.4671972081 1.3575464161 1.24411054 1.1296873865 1.0172219679 0.90937090954 
0.80816628637 0.71487100155 0.63001982895 1.6743954455 1.7840462375 1.8974821136 2.0119052671 2.1243706857 2.232221744 
2.3334263672 2.426721652 2.5115728246 1.4671972081 1.3575464161 1.24411054 1.1296873865 1.0172219679 0.90937090954 
0.80816628637 0.71487100155 0.63001982895 3.6007720849 3.4966939854 3.3839471039 3.2645756454 3.1415926536 3.0186096618 
2.8992382033 2.7864913217 2.6824132222 5.8240058758 5.9280839753 6.0408308569 6.1602023154 6.2831853072 0.12298299178 
0.2423544503 0.35510133185 0.45917943135 6.0560271438 5.7885595667 5.9702140275 5.5125918794 5.6029703303 5.7885595667 
5.2659633393 5.2659633393 5.2659633393 5.2659633393 5.0674903122 5.0120975802 4.9155579264 4.7123889804 4.1588146215 
4.9155579264 4.8353719722 4.7123889804 4.5092200343 4.1588146215 3.6362183941 4.8004512023 4.7123889804 4.5894059886 
4.4126803806 4.1588146215 3.8218076305 3.4545639333 4.7123889804 4.6243267584 4.5092200343 4.3572876485 4.1588146215 
3.9121860814 3.6362183941 3.368750817 6.0174235957 5.9434319871 5.8263323547 5.8809213739 5.7674481418 5.6279784266 
5.8278025282 5.718968232 5.5891129425 5.4372443565 5.7823484065 5.678536687 5.5575666702 5.4192596322 5.2659633393 
5.743164462 5.6444075337 5.5314983644 5.4046708639 5.2659633393 5.1195510325 5.7091357773 5.6152775188 5.5096229709 
5.3926039573 5.2659633393 5.1329233157 4.9978930058 5.6793730533 5.5901633916 5.4910209005 5.3824597928 5.2659633393 
5.1440684722 5.0201624502 4.8979782167 5.5683143056 5.4750190208 5.4750190208 5.3738143976 5.3738143976 5.3738143976 
5.2659633393 5.2659633393 5.2659633393 5.2659633393 5.1534979207 5.1534979207 5.1534979207 5.1534979207 5.1534979207 
5.0390747672 5.0390747672 5.0390747672 5.0390747672 5.0390747672 5.0390747672 4.9256388911 4.9256388911 4.9256388911 
4.9256388911 4.9256388911 4.9256388911 4.9256388911 4.8159880991 4.8159880991 4.8159880991 4.8159880991 4.8159880991 
4.8159880991 4.8159880991 4.8159880991 4.6087898617 4.6087898617 4.4991390697 4.6087898617 4.4991390697 4.3857031936 
4.6087898617 4.4991390697 4.3857031936 4.2712800401 4.6087898617 4.4991390697 4.3857031936 4.2712800401 4.1588146215 
4.6087898617 4.4991390697 4.3857031936 4.2712800401 4.1588146215 4.0509635631 4.6087898617 4.4991390697 4.3857031936 
4.2712800401 4.1588146215 4.0509635631 3.94975894 4.6087898617 4.4991390697 4.3857031936 4.2712800401 4.1588146215 
4.0509635631 3.94975894 3.8564636551 4.526799744 4.4046155105 4.426884955 4.2807094886 4.2918546451 4.3052269283 
4.1588146215 4.1588146215 4.1588146215 4.1588146215 4.042318168 4.0321740035 4.0201070968 4.0055183285 3.9875336042 
3.9337570603 3.9151549899 3.8932795963 3.8672112905 3.8356650183 3.7967995342 3.8346145692 3.809500442 3.7803704271 
3.7462412737 3.7058097288 3.657329819 3.5984456061 3.7454049075 3.7156421835 3.6816134988 3.6424295543 3.5969754326 
3.5438565869 3.4813459737 3.4073543651 3.5642842451 3.4524645613 3.5233842518 3.3320300872 3.403123212 3.4773852225 
3.20576226 3.2746326772 3.348015857 3.4255060145 3.0774230472 3.1415926536 3.2112816139 3.2864685043 3.3668817272 
2.95115522 3.00855263 3.0719036933 3.1415926536 3.2178377658 3.3005964304 2.8307207459 2.8800620952 2.9351694502 
2.9967168029 3.0653475414 3.1415926536 3.225752376 2.718901062 2.7598010554 2.8058000847 2.8576792927 2.91630358 
2.9825888767 3.0574329311 3.1415926536 3.5642842451 3.5233842518 3.4524645613 3.4773852225 3.403123212 3.3320300872 
3.4255060145 3.348015857 3.2746326772 3.20576226 3.3668817272 3.2864685043 3.2112816139 3.1415926536 3.0774230472 
3.3005964304 3.2178377658 3.1415926536 3.0719036933 3.00855263 2.95115522 3.225752376 3.1415926536 3.0653475414 
2.9967168029 2.9351694502 2.8800620952 2.8307207459 3.1415926536 3.0574329311 2.9825888767 2.91630358 2.8576792927 
2.8058000847 2.7598010554 2.718901062 4.526799744 4.426884955 4.4046155105 4.3052269283 4.2918546451 4.2807094886 
4.1588146215 4.1588146215 4.1588146215 4.1588146215 3.9875336042 4.0055183285 4.0201070968 4.0321740035 4.042318168 
3.7967995342 3.8356650183 3.8672112905 3.8932795963 3.9151549899 3.9337570603 3.5984456061 3.657329819 3.7058097288 
3.7462412737 3.7803704271 3.809500442 3.8346145692 3.4073543651 3.4813459737 3.5438565869 3.5969754326 3.6424295543 
3.6816134988 3.7156421835 3.7454049075 4.7123889804 4.8004512023 4.6243267584 4.9155579264 4.7123889804 4.5092200343 
5.0674903122 4.8353719722 4.5894059886 4.3572876485 5.2659633393 5.0120975802 4.7123889804 4.4126803806 4.1588146215 
5.5125918794 5.2659633393 4.9155579264 4.5092200343 4.1588146215 3.9121860814 5.7885595667 5.6029703303 5.2659633393 
4.7123889804 4.1588146215 3.8218076305 3.6362183941 6.0560271438 5.9702140275 5.7885595667 5.2659633393 4.1588146215 
3.6362183941 3.4545639333 3.368750817 0.22715816343 0.49462574053 0.3129712797 0.77059342779 0.68021497688 0.49462574053 
1.0172219679 1.0172219679 1.0172219679 1.0172219679 1.2156949949 1.271087727 1.3676273807 1.5707963268 2.1243706857 
1.3676273807 1.447813335 1.5707963268 1.7739652728 2.1243706857 2.6469669131 1.4827341049 1.5707963268 1.6937793186 
1.8705049266 2.1243706857 2.4613776767 2.8286213739 1.5707963268 1.6588585487 1.7739652728 1.9258976586 2.1243706857 
2.3709992258 2.6469669131 2.9144344902 1.7563855631 1.8785697967 1.8563003522 2.0024758186 1.9913306621 1.9779583789 
2.1243706857 2.1243706857 2.1243706857 2.1243706857 2.2408671392 2.2510113037 2.2630782103 2.2776669786 2.295651703 
2.3494282469 2.3680303173 2.3899057108 2.4159740166 2.4475202889 2.486385773 2.448570738 2.4736848652 2.5028148801 
2.5369440334 2.5773755784 2.6258554882 2.6847397011 2.5377803997 2.5675431237 2.6015718084 2.6407557529 2.6862098746 
2.7393287203 2.8018393335 2.8758309421 1.6743954455 1.6743954455 1.7840462375 1.6743954455 1.7840462375 1.8974821136 
1.6743954455 1.7840462375 1.8974821136 2.0119052671 1.6743954455 1.7840462375 1.8974821136 2.0119052671 2.1243706857 
1.6743954455 1.7840462375 1.8974821136 2.0119052671 2.1243706857 2.232221744 1.6743954455 1.7840462375 1.8974821136 
2.0119052671 2.1243706857 2.232221744 2.3334263672 1.6743954455 1.7840462375 1.8974821136 2.0119052671 2.1243706857 
2.232221744 2.3334263672 2.426721652 1.4671972081 1.3575464161 1.4671972081 1.24411054 1.3575464161 1.4671972081 
1.1296873865 1.24411054 1.3575464161 1.4671972081 1.0172219679 1.1296873865 1.24411054 1.3575464161 1.4671972081 
0.90937090954 1.0172219679 1.1296873865 1.24411054 1.3575464161 1.4671972081 0.80816628637 0.90937090954 1.0172219679 
1.1296873865 1.24411054 1.3575464161 1.4671972081 0.71487100155 0.80816628637 0.90937090954 1.0172219679 1.1296873865 
1.24411054 1.3575464161 1.4671972081 0.60381225391 0.57404952988 0.69302191562 0.54002084522 0.66790778838 0.79216440667 
0.50083690068 0.63877777351 0.77356233629 0.90072551443 0.45538277901 0.60464862014 0.75168694275 0.89058134991 1.0172219679 
0.40226393329 0.56421707518 0.72561863695 0.87851444325 1.0172219679 1.139116835 0.33975332011 0.51573716537 0.69407236469 
0.86392567495 1.0172219679 1.1502619915 1.2630228569 0.26576171152 0.45685295248 0.6552068806 0.84594095064 1.0172219679 
1.1636342747 1.2852923014 1.3852070904 0.22715816343 0.3129712797 0.49462574053 0.49462574053 0.68021497688 0.77059342779 
1.0172219679 1.0172219679 1.0172219679 1.0172219679 2.1243706857 1.5707963268 1.3676273807 1.271087727 1.2156949949 
2.6469669131 2.1243706857 1.7739652728 1.5707963268 1.447813335 1.3676273807 2.8286213739 2.4613776767 2.1243706857 
1.8705049266 1.6937793186 1.5707963268 1.4827341049 2.9144344902 2.6469669131 2.3709992258 2.1243706857 1.9258976586 
1.7739652728 1.6588585487 1.5707963268 1.7563855631 1.8563003522 1.8785697967 1.9779583789 1.9913306621 2.0024758186 
2.1243706857 2.1243706857 2.1243706857 2.1243706857 2.295651703 2.2776669786 2.2630782103 2.2510113037 2.2408671392 
2.486385773 2.4475202889 2.4159740166 2.3899057108 2.3680303173 2.3494282469 2.6847397011 2.6258554882 2.5773755784 
2.5369440334 2.5028148801 2.4736848652 2.448570738 2.8758309421 2.8018393335 2.7393287203 2.6862098746 2.6407557529 
2.6015718084 2.5675431237 2.5377803997 5.8604937156 5.901393709 5.9723133995 5.9473927383 6.0216547488 6.0927478736 
5.9992719463 6.0767621038 6.1501452836 6.2190157008 6.0578962336 6.1383094565 6.2134963469 0 0.064169606361 
6.1241815303 6.206940195 6.2831853072 0.069688960264 0.13304002361 0.19043743361 6.1990255847 0 0.07624511221 
0.14487585072 0.20642320337 0.26153055843 0.3108719077 0 0.084159722458 0.15900377685 0.22528907359 0.28391336087 
0.3357925689 0.38179159818 0.42269159155 5.8604937156 5.9723133995 5.901393709 6.0927478736 6.0216547488 5.9473927383 
6.2190157008 6.1501452836 6.0767621038 5.9992719463 0.064169606361 0 6.2134963469 6.1383094565 6.0578962336 
0.19043743361 0.13304002361 0.069688960264 6.2831853072 6.206940195 6.1241815303 0.3108719077 0.26153055843 0.20642320337 
0.14487585072 0.07624511221 6.2831853072 6.1990255847 0.42269159155 0.38179159818 0.3357925689 0.28391336087 0.22528907359 
0.15900377685 0.084159722458 0 5.6793730533 5.7091357773 5.5901633916 5.743164462 5.6152775188 5.4910209005 
5.7823484065 5.6444075337 5.5096229709 5.3824597928 5.8278025282 5.678536687 5.5314983644 5.3926039573 5.2659633393 
5.8809213739 5.718968232 5.5575666702 5.4046708639 5.2659633393 5.1440684722 5.9434319871 5.7674481418 5.5891129425 
5.4192596322 5.2659633393 5.1329233157 5.0201624502 6.0174235957 5.8263323547 5.6279784266 5.4372443565 5.2659633393 
5.1195510325 4.9978930058 4.8979782167 1.3852070904 1.2852923014 1.2630228569 1.1636342747 1.1502619915 1.139116835 
1.0172219679 1.0172219679 1.0172219679 1.0172219679 0.84594095064 0.86392567495 0.87851444325 0.89058134991 0.90072551443 
0.6552068806 0.69407236469 0.72561863695 0.75168694275 0.77356233629 0.79216440667 0.45685295248 0.51573716537 0.56421707518 
0.60464862014 0.63877777351 0.66790778838 0.69302191562 0.26576171152 0.33975332011 0.40226393329 0.45538277901 0.50083690068 
0.54002084522 0.57404952988 0.60381225391 
